2
# CELL(abcABC):  188.97261   188.97261   188.97261    90.00000    90.00000    90.00000  Step:           0  Bead:       0 velocities{atomic_unit}  cell{atomic_unit}
       O  3.06563e-05 -5.37545e-05  1.20984e-04
       H  2.41285e-04  1.11377e-04 -3.74230e-04
2
# CELL(abcABC):  188.97261   188.97261   188.97261    90.00000    90.00000    90.00000  Step:           2  Bead:       0 velocities{atomic_unit}  cell{atomic_unit}
       O  3.03554e-05 -5.42227e-05  1.20218e-04
       H  2.46062e-04  1.18810e-04 -3.62083e-04
2
# CELL(abcABC):  188.97261   188.97261   188.97261    90.00000    90.00000    90.00000  Step:           4  Bead:       0 velocities{atomic_unit}  cell{atomic_unit}
       O  2.79892e-05 -5.79068e-05  1.14184e-04
       H  2.83620e-04  1.77289e-04 -2.66302e-04
2
# CELL(abcABC):  188.97261   188.97261   188.97261    90.00000    90.00000    90.00000  Step:           6  Bead:       0 velocities{atomic_unit}  cell{atomic_unit}
       O  2.47072e-05 -6.30525e-05  1.05590e-04
       H  3.35717e-04  2.58968e-04 -1.29880e-04
2
# CELL(abcABC):  188.97261   188.97261   188.97261    90.00000    90.00000    90.00000  Step:           8  Bead:       0 velocities{atomic_unit}  cell{atomic_unit}
       O  2.19825e-05 -6.73554e-05  9.82584e-05
       H  3.78968e-04  3.27270e-04 -1.35036e-05
2
# CELL(abcABC):  188.97261   188.97261   188.97261    90.00000    90.00000    90.00000  Step:          10  Bead:       0 velocities{atomic_unit}  cell{atomic_unit}
       O  2.10009e-05 -6.89153e-05  9.55553e-05
       H  3.94549e-04  3.52031e-04  2.94038e-05
2
# CELL(abcABC):  188.97261   188.97261   188.97261    90.00000    90.00000    90.00000  Step:          12  Bead:       0 velocities{atomic_unit}  cell{atomic_unit}
       O  2.21491e-05 -6.70675e-05  9.88636e-05
       H  3.76322e-04  3.22700e-04 -2.31103e-05
2
# CELL(abcABC):  188.97261   188.97261   188.97261    90.00000    90.00000    90.00000  Step:          14  Bead:       0 velocities{atomic_unit}  cell{atomic_unit}
       O  2.47825e-05 -6.27984e-05  1.06649e-04
       H  3.34521e-04  2.54935e-04 -1.46696e-04
2
# CELL(abcABC):  188.97261   188.97261   188.97261    90.00000    90.00000    90.00000  Step:          16  Bead:       0 velocities{atomic_unit}  cell{atomic_unit}
       O  2.75119e-05 -5.83356e-05  1.14961e-04
       H  2.91197e-04  1.84096e-04 -2.78626e-04
2
# CELL(abcABC):  188.97261   188.97261   188.97261    90.00000    90.00000    90.00000  Step:          18  Bead:       0 velocities{atomic_unit}  cell{atomic_unit}
       O  2.89603e-05 -5.59474e-05  1.19498e-04
       H  2.68206e-04  1.46185e-04 -3.50649e-04
2
# CELL(abcABC):  188.97261   188.97261   188.97261    90.00000    90.00000    90.00000  Step:          20  Bead:       0 velocities{atomic_unit}  cell{atomic_unit}
       O  2.84916e-05 -5.67332e-05  1.17948e-04
       H  2.75647e-04  1.58659e-04 -3.26040e-04
2
# CELL(abcABC):  188.97261   188.97261   188.97261    90.00000    90.00000    90.00000  Step:          22  Bead:       0 velocities{atomic_unit}  cell{atomic_unit}
       O  2.64307e-05 -6.02084e-05  1.11003e-04
       H  3.08360e-04  2.13823e-04 -2.15808e-04
2
# CELL(abcABC):  188.97261   188.97261   188.97261    90.00000    90.00000    90.00000  Step:          24  Bead:       0 velocities{atomic_unit}  cell{atomic_unit}
       O  2.37791e-05 -6.47241e-05  1.01787e-04
       H  3.50450e-04  2.85502e-04 -6.95175e-05
2
# CELL(abcABC):  188.97261   188.97261   188.97261    90.00000    90.00000    90.00000  Step:          26  Bead:       0 velocities{atomic_unit}  cell{atomic_unit}
       O  2.17214e-05 -6.82648e-05  9.44049e-05
       H  3.83112e-04  3.41704e-04  4.76655e-05
2
# CELL(abcABC):  188.97261   188.97261   188.97261    90.00000    90.00000    90.00000  Step:          28  Bead:       0 velocities{atomic_unit}  cell{atomic_unit}
       O  2.11373e-05 -6.92779e-05  9.22580e-05
       H  3.92384e-04  3.57786e-04  8.17438e-05
2
# CELL(abcABC):  188.97261   188.97261   188.97261    90.00000    90.00000    90.00000  Step:          30  Bead:       0 velocities{atomic_unit}  cell{atomic_unit}
       O  2.22198e-05 -6.73641e-05  9.64656e-05
       H  3.75201e-04  3.27408e-04  1.49543e-05
2
# CELL(abcABC):  188.97261   188.97261   188.97261    90.00000    90.00000    90.00000  Step:          32  Bead:       0 velocities{atomic_unit}  cell{atomic_unit}
       O  2.43509e-05 -6.35537e-05  1.05021e-04
       H  3.41373e-04  2.66924e-04 -1.20855e-04
2
# CELL(abcABC):  188.97261   188.97261   188.97261    90.00000    90.00000    90.00000  Step:          34  Bead:       0 velocities{atomic_unit}  cell{atomic_unit}
       O  2.64016e-05 -5.98395e-05  1.13556e-04
       H  3.08822e-04  2.07966e-04 -2.56323e-04
2
# CELL(abcABC):  188.97261   188.97261   188.97261    90.00000    90.00000    90.00000  Step:          36  Bead:       0 velocities{atomic_unit}  cell{atomic_unit}
       O  2.73557e-05 -5.80899e-05  1.17663e-04
       H  2.93677e-04  1.80194e-04 -3.21514e-04
2
# CELL(abcABC):  188.97261   188.97261   188.97261    90.00000    90.00000    90.00000  Step:          38  Bead:       0 velocities{atomic_unit}  cell{atomic_unit}
       O  2.68326e-05 -5.90718e-05  1.15267e-04
       H  3.01980e-04  1.95780e-04 -2.83494e-04
2
# CELL(abcABC):  188.97261   188.97261   188.97261    90.00000    90.00000    90.00000  Step:          40  Bead:       0 velocities{atomic_unit}  cell{atomic_unit}
       O  2.51808e-05 -6.22083e-05  1.07475e-04
       H  3.28199e-04  2.45568e-04 -1.59796e-04
2
# CELL(abcABC):  188.97261   188.97261   188.97261    90.00000    90.00000    90.00000  Step:          42  Bead:       0 velocities{atomic_unit}  cell{atomic_unit}
       O  2.32074e-05 -6.60149e-05  9.77892e-05
       H  3.59524e-04  3.05991e-04 -6.05558e-06
2
# CELL(abcABC):  188.97261   188.97261   188.97261    90.00000    90.00000    90.00000  Step:          44  Bead:       0 velocities{atomic_unit}  cell{atomic_unit}
       O  2.17873e-05 -6.87996e-05  9.05310e-05
       H  3.82066e-04  3.50195e-04  1.09156e-04
2
# CELL(abcABC):  188.97261   188.97261   188.97261    90.00000    90.00000    90.00000  Step:          46  Bead:       0 velocities{atomic_unit}  cell{atomic_unit}
       O  2.15054e-05 -6.93575e-05  8.90578e-05
       H  3.86540e-04  3.59049e-04  1.32542e-04
2
# CELL(abcABC):  188.97261   188.97261   188.97261    90.00000    90.00000    90.00000  Step:          48  Bead:       0 velocities{atomic_unit}  cell{atomic_unit}
       O  2.24055e-05 -6.75129e-05  9.41631e-05
       H  3.72253e-04  3.29769e-04  5.15025e-05
2
# CELL(abcABC):  188.97261   188.97261   188.97261    90.00000    90.00000    90.00000  Step:          50  Bead:       0 velocities{atomic_unit}  cell{atomic_unit}
       O  2.39569e-05 -6.42701e-05  1.03364e-04
       H  3.47627e-04  2.78295e-04 -9.45501e-05
2
# CELL(abcABC):  188.97261   188.97261   188.97261    90.00000    90.00000    90.00000  Step:          52  Bead:       0 velocities{atomic_unit}  cell{atomic_unit}
       O  2.53339e-05 -6.13273e-05  1.11940e-04
       H  3.25770e-04  2.31583e-04 -2.30679e-04
2
# CELL(abcABC):  188.97261   188.97261   188.97261    90.00000    90.00000    90.00000  Step:          54  Bead:       0 velocities{atomic_unit}  cell{atomic_unit}
       O  2.58771e-05 -6.01420e-05  1.15478e-04
       H  3.17146e-04  2.12768e-04 -2.86829e-04
2
# CELL(abcABC):  188.97261   188.97261   188.97261    90.00000    90.00000    90.00000  Step:          56  Bead:       0 velocities{atomic_unit}  cell{atomic_unit}
       O  2.54160e-05 -6.11900e-05  1.12209e-04
       H  3.24466e-04  2.29404e-04 -2.34952e-04
2
# CELL(abcABC):  188.97261   188.97261   188.97261    90.00000    90.00000    90.00000  Step:          58  Bead:       0 velocities{atomic_unit}  cell{atomic_unit}
       O  2.42659e-05 -6.38666e-05  1.03659e-04
       H  3.42722e-04  2.71891e-04 -9.92328e-05
2
# CELL(abcABC):  188.97261   188.97261   188.97261    90.00000    90.00000    90.00000  Step:          60  Bead:       0 velocities{atomic_unit}  cell{atomic_unit}
       O  2.29985e-05 -6.69057e-05  9.36705e-05
       H  3.62840e-04  3.20132e-04  5.93221e-05
2
# CELL(abcABC):  188.97261   188.97261   188.97261    90.00000    90.00000    90.00000  Step:          62  Bead:       0 velocities{atomic_unit}  cell{atomic_unit}
       O  2.21665e-05 -6.89652e-05  8.67042e-05
       H  3.76046e-04  3.52823e-04  1.69902e-04
2
# CELL(abcABC):  188.97261   188.97261   188.97261    90.00000    90.00000    90.00000  Step:          64  Bead:       0 velocities{atomic_unit}  cell{atomic_unit}
       O  2.20810e-05 -6.91758e-05  8.59956e-05
       H  3.77404e-04  3.56166e-04  1.81148e-04
2
# CELL(abcABC):  188.97261   188.97261   188.97261    90.00000    90.00000    90.00000  Step:          66  Bead:       0 velocities{atomic_unit}  cell{atomic_unit}
       O  2.26864e-05 -6.75354e-05  9.19637e-05
       H  3.67795e-04  3.30126e-04  8.64153e-05
2
# CELL(abcABC):  188.97261   188.97261   188.97261    90.00000    90.00000    90.00000  Step:          68  Bead:       0 velocities{atomic_unit}  cell{atomic_unit}
       O  2.35992e-05 -6.49515e-05  1.01663e-04
       H  3.53304e-04  2.89111e-04 -6.75379e-05
2
# CELL(abcABC):  188.97261   188.97261   188.97261    90.00000    90.00000    90.00000  Step:          70  Bead:       0 velocities{atomic_unit}  cell{atomic_unit}
       O  2.43299e-05 -6.27770e-05  1.10100e-04
       H  3.41707e-04  2.54595e-04 -2.01466e-04
2
# CELL(abcABC):  188.97261   188.97261   188.97261    90.00000    90.00000    90.00000  Step:          72  Bead:       0 velocities{atomic_unit}  cell{atomic_unit}
       O  2.45595e-05 -6.20619e-05  1.12952e-04
       H  3.38061e-04  2.43244e-04 -2.46741e-04
2
# CELL(abcABC):  188.97261   188.97261   188.97261    90.00000    90.00000    90.00000  Step:          74  Bead:       0 velocities{atomic_unit}  cell{atomic_unit}
       O  2.42757e-05 -6.30422e-05  1.08815e-04
       H  3.42567e-04  2.58804e-04 -1.81076e-04
2
# CELL(abcABC):  188.97261   188.97261   188.97261    90.00000    90.00000    90.00000  Step:          76  Bead:       0 velocities{atomic_unit}  cell{atomic_unit}
       O  2.37055e-05 -6.51502e-05  9.96247e-05
       H  3.51618e-04  2.92265e-04 -3.51904e-05
2
# CELL(abcABC):  188.97261   188.97261   188.97261    90.00000    90.00000    90.00000  Step:          78  Bead:       0 velocities{atomic_unit}  cell{atomic_unit}
       O  2.31510e-05 -6.73862e-05  8.95071e-05
       H  3.60419e-04  3.27759e-04  1.25410e-04
2
# CELL(abcABC):  188.97261   188.97261   188.97261    90.00000    90.00000    90.00000  Step:          80  Bead:       0 velocities{atomic_unit}  cell{atomic_unit}
       O  2.28395e-05 -6.87743e-05  8.29873e-05
       H  3.65364e-04  3.49792e-04  2.28900e-04
2
# CELL(abcABC):  188.97261   188.97261   188.97261    90.00000    90.00000    90.00000  Step:          82  Bead:       0 velocities{atomic_unit}  cell{atomic_unit}
       O  2.28370e-05 -6.87586e-05  8.31052e-05
       H  3.65403e-04  3.49543e-04  2.27029e-04
2
# CELL(abcABC):  188.97261   188.97261   188.97261    90.00000    90.00000    90.00000  Step:          84  Bead:       0 velocities{atomic_unit}  cell{atomic_unit}
       O  2.30443e-05 -6.74526e-05  8.98684e-05
       H  3.62114e-04  3.28812e-04  1.19674e-04
2
# CELL(abcABC):  188.97261   188.97261   188.97261    90.00000    90.00000    90.00000  Step:          86  Bead:       0 velocities{atomic_unit}  cell{atomic_unit}
       O  2.32804e-05 -6.55976e-05  9.98998e-05
       H  3.58365e-04  2.99368e-04 -3.95577e-05
2
# CELL(abcABC):  188.97261   188.97261   188.97261    90.00000    90.00000    90.00000  Step:          88  Bead:       0 velocities{atomic_unit}  cell{atomic_unit}
       O  2.34133e-05 -6.41626e-05  1.08026e-04
       H  3.56256e-04  2.76589e-04 -1.68542e-04
2
# CELL(abcABC):  188.97261   188.97261   188.97261    90.00000    90.00000    90.00000  Step:          90  Bead:       0 velocities{atomic_unit}  cell{atomic_unit}
       O  2.34370e-05 -6.38073e-05  1.10105e-04
       H  3.55879e-04  2.70949e-04 -2.01541e-04
2
# CELL(abcABC):  188.97261   188.97261   188.97261    90.00000    90.00000    90.00000  Step:          92  Bead:       0 velocities{atomic_unit}  cell{atomic_unit}
       O  2.34408e-05 -6.45867e-05  1.05136e-04
       H  3.55820e-04  2.83320e-04 -1.22670e-04
2
# CELL(abcABC):  188.97261   188.97261   188.97261    90.00000    90.00000    90.00000  Step:          94  Bead:       0 velocities{atomic_unit}  cell{atomic_unit}
       O  2.35117e-05 -6.60334e-05  9.54436e-05
       H  3.54693e-04  3.06284e-04  3.11770e-05
2
# CELL(abcABC):  188.97261   188.97261   188.97261    90.00000    90.00000    90.00000  Step:          96  Bead:       0 velocities{atomic_unit}  cell{atomic_unit}
       O  2.36562e-05 -6.74547e-05  8.53743e-05
       H  3.52400e-04  3.28846e-04  1.91011e-04
2
# CELL(abcABC):  188.97261   188.97261   188.97261    90.00000    90.00000    90.00000  Step:          98  Bead:       0 velocities{atomic_unit}  cell{atomic_unit}
       O  2.37812e-05 -6.82466e-05  7.94379e-05
       H  3.50415e-04  3.41416e-04  2.85241e-04
2
# CELL(abcABC):  188.97261   188.97261   188.97261    90.00000    90.00000    90.00000  Step:         100  Bead:       0 velocities{atomic_unit}  cell{atomic_unit}
       O  2.37454e-05 -6.81343e-05  8.04121e-05
       H  3.50983e-04  3.39633e-04  2.69778e-04
2
# CELL(abcABC):  188.97261   188.97261   188.97261    90.00000    90.00000    90.00000  Step:         102  Bead:       0 velocities{atomic_unit}  cell{atomic_unit}
       O  2.34633e-05 -6.72834e-05  8.78728e-05
       H  3.55462e-04  3.26127e-04  1.51351e-04
2
# CELL(abcABC):  188.97261   188.97261   188.97261    90.00000    90.00000    90.00000  Step:         104  Bead:       0 velocities{atomic_unit}  cell{atomic_unit}
       O  2.30067e-05 -6.62040e-05  9.80599e-05
       H  3.62710e-04  3.08993e-04 -1.03519e-05
2
# CELL(abcABC):  188.97261   188.97261   188.97261    90.00000    90.00000    90.00000  Step:         106  Bead:       0 velocities{atomic_unit}  cell{atomic_unit}
       O  2.26099e-05 -6.54549e-05  1.05715e-04
       H  3.69009e-04  2.97102e-04 -1.31862e-04
2
# CELL(abcABC):  188.97261   188.97261   188.97261    90.00000    90.00000    90.00000  Step:         108  Bead:       0 velocities{atomic_unit}  cell{atomic_unit}
       O  2.25419e-05 -6.53365e-05  1.06963e-04
       H  3.70088e-04  2.95224e-04 -1.51669e-04
2
# CELL(abcABC):  188.97261   188.97261   188.97261    90.00000    90.00000    90.00000  Step:         110  Bead:       0 velocities{atomic_unit}  cell{atomic_unit}
       O  2.29348e-05 -6.57870e-05  1.01230e-04
       H  3.63851e-04  3.02374e-04 -6.06661e-05
2
# CELL(abcABC):  188.97261   188.97261   188.97261    90.00000    90.00000    90.00000  Step:         112  Bead:       0 velocities{atomic_unit}  cell{atomic_unit}
       O  2.36893e-05 -6.64988e-05  9.11923e-05
       H  3.51874e-04  3.13673e-04  9.86604e-05
2
# CELL(abcABC):  188.97261   188.97261   188.97261    90.00000    90.00000    90.00000  Step:         114  Bead:       0 velocities{atomic_unit}  cell{atomic_unit}
       O  2.44979e-05 -6.71181e-05  8.13454e-05
       H  3.39039e-04  3.23502e-04  2.54962e-04
2
# CELL(abcABC):  188.97261   188.97261   188.97261    90.00000    90.00000    90.00000  Step:         116  Bead:       0 velocities{atomic_unit}  cell{atomic_unit}
       O  2.49624e-05 -6.74080e-05  7.61065e-05
       H  3.31666e-04  3.28104e-04  3.38122e-04
2
# CELL(abcABC):  188.97261   188.97261   188.97261    90.00000    90.00000    90.00000  Step:         118  Bead:       0 velocities{atomic_unit}  cell{atomic_unit}
       O  2.47777e-05 -6.73330e-05  7.79340e-05
       H  3.34598e-04  3.26915e-04  3.09114e-04
2
# CELL(abcABC):  188.97261   188.97261   188.97261    90.00000    90.00000    90.00000  Step:         120  Bead:       0 velocities{atomic_unit}  cell{atomic_unit}
       O  2.39306e-05 -6.70442e-05  8.59677e-05
       H  3.48044e-04  3.22330e-04  1.81591e-04
2
# CELL(abcABC):  188.97261   188.97261   188.97261    90.00000    90.00000    90.00000  Step:         122  Bead:       0 velocities{atomic_unit}  cell{atomic_unit}
       O  2.27877e-05 -6.67615e-05  9.61281e-05
       H  3.66185e-04  3.17842e-04  2.03120e-05
2
# CELL(abcABC):  188.97261   188.97261   188.97261    90.00000    90.00000    90.00000  Step:         124  Bead:       0 velocities{atomic_unit}  cell{atomic_unit}
       O  2.19464e-05 -6.66222e-05  1.03172e-04
       H  3.79541e-04  3.15631e-04 -9.14989e-05
2
# CELL(abcABC):  188.97261   188.97261   188.97261    90.00000    90.00000    90.00000  Step:         126  Bead:       0 velocities{atomic_unit}  cell{atomic_unit}
       O  2.19034e-05 -6.66101e-05  1.03563e-04
       H  3.80223e-04  3.15439e-04 -9.77088e-05
2
# CELL(abcABC):  188.97261   188.97261   188.97261    90.00000    90.00000    90.00000  Step:         128  Bead:       0 velocities{atomic_unit}  cell{atomic_unit}
       O  2.27750e-05 -6.66131e-05  9.71621e-05
       H  3.66388e-04  3.15487e-04  3.89848e-06
2
# CELL(abcABC):  188.97261   188.97261   188.97261    90.00000    90.00000    90.00000  Step:         130  Bead:       0 velocities{atomic_unit}  cell{atomic_unit}
       O  2.42351e-05 -6.65379e-05  8.69484e-05
       H  3.43210e-04  3.14292e-04  1.66025e-04
2
# CELL(abcABC):  188.97261   188.97261   188.97261    90.00000    90.00000    90.00000  Step:         132  Bead:       0 velocities{atomic_unit}  cell{atomic_unit}
       O  2.56538e-05 -6.63915e-05  7.74896e-05
       H  3.20692e-04  3.11969e-04  3.16168e-04
2
# CELL(abcABC):  188.97261   188.97261   188.97261    90.00000    90.00000    90.00000  Step:         134  Bead:       0 velocities{atomic_unit}  cell{atomic_unit}
       O  2.63504e-05 -6.62894e-05  7.30358e-05
       H  3.09634e-04  3.10349e-04  3.86865e-04
2
# CELL(abcABC):  188.97261   188.97261   188.97261    90.00000    90.00000    90.00000  Step:         136  Bead:       0 velocities{atomic_unit}  cell{atomic_unit}
       O  2.59060e-05 -6.63855e-05  7.56806e-05
       H  3.16689e-04  3.11875e-04  3.44883e-04
2
# CELL(abcABC):  188.97261   188.97261   188.97261    90.00000    90.00000    90.00000  Step:         138  Bead:       0 velocities{atomic_unit}  cell{atomic_unit}
       O  2.44369e-05 -6.67478e-05  8.41402e-05
       H  3.40008e-04  3.17625e-04  2.10600e-04
2
# CELL(abcABC):  188.97261   188.97261   188.97261    90.00000    90.00000    90.00000  Step:         140  Bead:       0 velocities{atomic_unit}  cell{atomic_unit}
       O  2.26367e-05 -6.72569e-05  9.40927e-05
       H  3.68583e-04  3.25707e-04  5.26211e-05
2
# CELL(abcABC):  188.97261   188.97261   188.97261    90.00000    90.00000    90.00000  Step:         142  Bead:       0 velocities{atomic_unit}  cell{atomic_unit}
       O  2.14497e-05 -6.76315e-05  1.00409e-04
       H  3.87425e-04  3.31652e-04 -4.76461e-05
2
# CELL(abcABC):  188.97261   188.97261   188.97261    90.00000    90.00000    90.00000  Step:         144  Bead:       0 velocities{atomic_unit}  cell{atomic_unit}
       O  2.15468e-05 -6.75916e-05  9.99515e-05
       H  3.85884e-04  3.31018e-04 -4.03785e-05
2
# CELL(abcABC):  188.97261   188.97261   188.97261    90.00000    90.00000    90.00000  Step:         146  Bead:       0 velocities{atomic_unit}  cell{atomic_unit}
       O  2.29715e-05 -6.70420e-05  9.30039e-05
       H  3.63268e-04  3.22295e-04  6.99030e-05
2
# CELL(abcABC):  188.97261   188.97261   188.97261    90.00000    90.00000    90.00000  Step:         148  Bead:       0 velocities{atomic_unit}  cell{atomic_unit}
       O  2.51384e-05 -6.61507e-05  8.27895e-05
       H  3.28872e-04  3.08147e-04  2.32041e-04
2
# CELL(abcABC):  188.97261   188.97261   188.97261    90.00000    90.00000    90.00000  Step:         150  Bead:       0 velocities{atomic_unit}  cell{atomic_unit}
       O  2.70951e-05 -6.52978e-05  7.38703e-05
       H  2.97813e-04  2.94609e-04  3.73618e-04
2
# CELL(abcABC):  188.97261   188.97261   188.97261    90.00000    90.00000    90.00000  Step:         152  Bead:       0 velocities{atomic_unit}  cell{atomic_unit}
       O  2.79102e-05 -6.49260e-05  7.02598e-05
       H  2.84875e-04  2.88707e-04  4.30930e-04
2
# CELL(abcABC):  188.97261   188.97261   188.97261    90.00000    90.00000    90.00000  Step:         154  Bead:       0 velocities{atomic_unit}  cell{atomic_unit}
       O  2.71040e-05 -6.53217e-05  7.36541e-05
       H  2.97673e-04  2.94988e-04  3.77050e-04
2
# CELL(abcABC):  188.97261   188.97261   188.97261    90.00000    90.00000    90.00000  Step:         156  Bead:       0 velocities{atomic_unit}  cell{atomic_unit}
       O  2.49763e-05 -6.64032e-05  8.23752e-05
       H  3.31445e-04  3.12155e-04  2.38617e-04
2
# CELL(abcABC):  188.97261   188.97261   188.97261    90.00000    90.00000    90.00000  Step:         158  Bead:       0 velocities{atomic_unit}  cell{atomic_unit}
       O  2.25692e-05 -6.76734e-05  9.19459e-05
       H  3.69654e-04  3.32318e-04  8.66975e-05
2
# CELL(abcABC):  188.97261   188.97261   188.97261    90.00000    90.00000    90.00000  Step:         160  Bead:       0 velocities{atomic_unit}  cell{atomic_unit}
       O  2.11458e-05 -6.84496e-05  9.74472e-05
       H  3.92249e-04  3.44638e-04 -6.26114e-07
2
# CELL(abcABC):  188.97261   188.97261   188.97261    90.00000    90.00000    90.00000  Step:         162  Bead:       0 velocities{atomic_unit}  cell{atomic_unit}
       O  2.14925e-05 -6.82490e-05  9.61804e-05
       H  3.86746e-04  3.41455e-04  1.94815e-05
2
# CELL(abcABC):  188.97261   188.97261   188.97261    90.00000    90.00000    90.00000  Step:         164  Bead:       0 velocities{atomic_unit}  cell{atomic_unit}
       O  2.35272e-05 -6.70587e-05  8.88292e-05
       H  3.54447e-04  3.22560e-04  1.36170e-04
2
# CELL(abcABC):  188.97261   188.97261   188.97261    90.00000    90.00000    90.00000  Step:         166  Bead:       0 velocities{atomic_unit}  cell{atomic_unit}
       O  2.63810e-05 -6.53464e-05  7.87910e-05
       H  3.09148e-04  2.95379e-04  2.95510e-04
2
# CELL(abcABC):  188.97261   188.97261   188.97261    90.00000    90.00000    90.00000  Step:         168  Bead:       0 velocities{atomic_unit}  cell{atomic_unit}
       O  2.87884e-05 -6.38670e-05  7.05441e-05
       H  2.70935e-04  2.71897e-04  4.26416e-04
2
# CELL(abcABC):  188.97261   188.97261   188.97261    90.00000    90.00000    90.00000  Step:         170  Bead:       0 velocities{atomic_unit}  cell{atomic_unit}
       O  2.96054e-05 -6.33557e-05  6.78034e-05
       H  2.57966e-04  2.63781e-04  4.69920e-04
2
# CELL(abcABC):  188.97261   188.97261   188.97261    90.00000    90.00000    90.00000  Step:         172  Bead:       0 velocities{atomic_unit}  cell{atomic_unit}
       O  2.83479e-05 -6.41698e-05  7.18498e-05
       H  2.77927e-04  2.76703e-04  4.05689e-04
2
# CELL(abcABC):  188.97261   188.97261   188.97261    90.00000    90.00000    90.00000  Step:         174  Bead:       0 velocities{atomic_unit}  cell{atomic_unit}
       O  2.55472e-05 -6.60150e-05  8.06564e-05
       H  3.22383e-04  3.05993e-04  2.65900e-04
2
# CELL(abcABC):  188.97261   188.97261   188.97261    90.00000    90.00000    90.00000  Step:         176  Bead:       0 velocities{atomic_unit}  cell{atomic_unit}
       O  2.26031e-05 -6.79909e-05  8.96852e-05
       H  3.69116e-04  3.37357e-04  1.22582e-04
2
# CELL(abcABC):  188.97261   188.97261   188.97261    90.00000    90.00000    90.00000  Step:         178  Bead:       0 velocities{atomic_unit}  cell{atomic_unit}
       O  2.10588e-05 -6.90443e-05  9.43139e-05
       H  3.93630e-04  3.54078e-04  4.91096e-05
2
# CELL(abcABC):  188.97261   188.97261   188.97261    90.00000    90.00000    90.00000  Step:         180  Bead:       0 velocities{atomic_unit}  cell{atomic_unit}
       O  2.17552e-05 -6.85561e-05  9.23095e-05
       H  3.82575e-04  3.46329e-04  8.09260e-05
2
# CELL(abcABC):  188.97261   188.97261   188.97261    90.00000    90.00000    90.00000  Step:         182  Bead:       0 velocities{atomic_unit}  cell{atomic_unit}
       O  2.44374e-05 -6.66567e-05  8.47140e-05
       H  3.40000e-04  3.16178e-04  2.01491e-04
2
# CELL(abcABC):  188.97261   188.97261   188.97261    90.00000    90.00000    90.00000  Step:         184  Bead:       0 velocities{atomic_unit}  cell{atomic_unit}
       O  2.79378e-05 -6.41425e-05  7.50246e-05
       H  2.84436e-04  2.76271e-04  3.55295e-04
2
# CELL(abcABC):  188.97261   188.97261   188.97261    90.00000    90.00000    90.00000  Step:         186  Bead:       0 velocities{atomic_unit}  cell{atomic_unit}
       O  3.06960e-05 -6.21348e-05  6.75592e-05
       H  2.40654e-04  2.44401e-04  4.73797e-04
2
# CELL(abcABC):  188.97261   188.97261   188.97261    90.00000    90.00000    90.00000  Step:         188  Bead:       0 velocities{atomic_unit}  cell{atomic_unit}
       O  3.13999e-05 -6.16179e-05  6.56826e-05
       H  2.29481e-04  2.36196e-04  5.03584e-04
2
# CELL(abcABC):  188.97261   188.97261   188.97261    90.00000    90.00000    90.00000  Step:         190  Bead:       0 velocities{atomic_unit}  cell{atomic_unit}
       O  2.96170e-05 -6.29553e-05  7.02574e-05
       H  2.57782e-04  2.57425e-04  4.30967e-04
2
# CELL(abcABC):  188.97261   188.97261   188.97261    90.00000    90.00000    90.00000  Step:         192  Bead:       0 velocities{atomic_unit}  cell{atomic_unit}
       O  2.61514e-05 -6.55836e-05  7.89678e-05
       H  3.12793e-04  2.99145e-04  2.92703e-04
2
# CELL(abcABC):  188.97261   188.97261   188.97261    90.00000    90.00000    90.00000  Step:         194  Bead:       0 velocities{atomic_unit}  cell{atomic_unit}
       O  2.27572e-05 -6.81869e-05  8.73141e-05
       H  3.66671e-04  3.40469e-04  1.60219e-04
2
# CELL(abcABC):  188.97261   188.97261   188.97261    90.00000    90.00000    90.00000  Step:         196  Bead:       0 velocities{atomic_unit}  cell{atomic_unit}
       O  2.12097e-05 -6.93854e-05  9.10458e-05
       H  3.91233e-04  3.59492e-04  1.00985e-04
2
# CELL(abcABC):  188.97261   188.97261   188.97261    90.00000    90.00000    90.00000  Step:         198  Bead:       0 velocities{atomic_unit}  cell{atomic_unit}
       O  2.23433e-05 -6.84930e-05  8.84036e-05
       H  3.73239e-04  3.45327e-04  1.42926e-04
2
# CELL(abcABC):  188.97261   188.97261   188.97261    90.00000    90.00000    90.00000  Step:         200  Bead:       0 velocities{atomic_unit}  cell{atomic_unit}
       O  2.56898e-05 -6.58380e-05  8.07344e-05
       H  3.20119e-04  3.03184e-04  2.64661e-04
2
# CELL(abcABC):  188.97261   188.97261   188.97261    90.00000    90.00000    90.00000  Step:         202  Bead:       0 velocities{atomic_unit}  cell{atomic_unit}
       O  2.97776e-05 -6.25650e-05  7.15562e-05
       H  2.55233e-04  2.51230e-04  4.10350e-04
2
# CELL(abcABC):  188.97261   188.97261   188.97261    90.00000    90.00000    90.00000  Step:         204  Bead:       0 velocities{atomic_unit}  cell{atomic_unit}
       O  3.27774e-05 -6.01420e-05  6.49547e-05
       H  2.07616e-04  2.12768e-04  5.15138e-04
2
# CELL(abcABC):  188.97261   188.97261   188.97261    90.00000    90.00000    90.00000  Step:         206  Bead:       0 velocities{atomic_unit}  cell{atomic_unit}
       O  3.32582e-05 -5.97525e-05  6.39040e-05
       H  1.99984e-04  2.06585e-04  5.31817e-04
2
# CELL(abcABC):  188.97261   188.97261   188.97261    90.00000    90.00000    90.00000  Step:         208  Bead:       0 velocities{atomic_unit}  cell{atomic_unit}
       O  3.08944e-05 -6.17004e-05  6.88613e-05
       H  2.37506e-04  2.37505e-04  4.53128e-04
2
# CELL(abcABC):  188.97261   188.97261   188.97261    90.00000    90.00000    90.00000  Step:         210  Bead:       0 velocities{atomic_unit}  cell{atomic_unit}
       O  2.67942e-05 -6.51051e-05  7.72954e-05
       H  3.02589e-04  2.91550e-04  3.19251e-04
2
# CELL(abcABC):  188.97261   188.97261   188.97261    90.00000    90.00000    90.00000  Step:         212  Bead:       0 velocities{atomic_unit}  cell{atomic_unit}
       O  2.30507e-05 -6.82378e-05  8.48426e-05
       H  3.62011e-04  3.41276e-04  1.99450e-04
2
# CELL(abcABC):  188.97261   188.97261   188.97261    90.00000    90.00000    90.00000  Step:         214  Bead:       0 velocities{atomic_unit}  cell{atomic_unit}
       O  2.16160e-05 -6.94461e-05  8.76865e-05
       H  3.84785e-04  3.60456e-04  1.54309e-04
2
# CELL(abcABC):  188.97261   188.97261   188.97261    90.00000    90.00000    90.00000  Step:         216  Bead:       0 velocities{atomic_unit}  cell{atomic_unit}
       O  2.32584e-05 -6.80470e-05  8.45313e-05
       H  3.58715e-04  3.38248e-04  2.04392e-04
2
# CELL(abcABC):  188.97261   188.97261   188.97261    90.00000    90.00000    90.00000  Step:         218  Bead:       0 velocities{atomic_unit}  cell{atomic_unit}
       O  2.72648e-05 -6.46138e-05  7.69646e-05
       H  2.95119e-04  2.83751e-04  3.24502e-04
2
# CELL(abcABC):  188.97261   188.97261   188.97261    90.00000    90.00000    90.00000  Step:         220  Bead:       0 velocities{atomic_unit}  cell{atomic_unit}
       O  3.18634e-05 -6.06470e-05  6.84448e-05
       H  2.22123e-04  2.20784e-04  4.59739e-04
2
# CELL(abcABC):  188.97261   188.97261   188.97261    90.00000    90.00000    90.00000  Step:         222  Bead:       0 velocities{atomic_unit}  cell{atomic_unit}
       O  3.49899e-05 -5.79331e-05  6.27600e-05
       H  1.72496e-04  1.77706e-04  5.49976e-04
2
# CELL(abcABC):  188.97261   188.97261   188.97261    90.00000    90.00000    90.00000  Step:         224  Bead:       0 velocities{atomic_unit}  cell{atomic_unit}
       O  3.51468e-05 -5.77983e-05  6.24656e-05
       H  1.70005e-04  1.75566e-04  5.54648e-04
2
# CELL(abcABC):  188.97261   188.97261   188.97261    90.00000    90.00000    90.00000  Step:         226  Bead:       0 velocities{atomic_unit}  cell{atomic_unit}
       O  3.21669e-05 -6.04230e-05  6.76428e-05
       H  2.17306e-04  2.17229e-04  4.72470e-04
2