<!--
 Git information:
    i-PI version: unknown
      Remote URL: https://github.com/i-pi/i-pi.git
          Branch: main                    
     Last Commit: f5d94d4a2cbc6262d4730c8559e1ad81151cec4f

 Simulation information:
           Machine Name: ockham.pl.ucsd.edu
      Working Directory: /home/rrashmi/tutorials/QDMS/final/timecorrs/nve
          Date and Time: 2025-07-15 12:04:32
-->
<simulation verbosity='low'>
   <prng>
      <seed>32415</seed>
      <state>[{"bit_generator": "MT19937", "state": {"key": [2147483648, 1724768682, 4175952935, 2148846126, 2732704757, 548830481, 4274991711, 862907844, 1961513198, 1974788691, 843845228, 2653229311, 3178535360, 399752692, 922868209, 3261886246, 771115858, 402962531, 2400522389, 2924267190, 2653224688, 1136897380, 756449606, 3334550443, 668710687, 10653765, 1418582893, 2378146853, 1753803260, 183913681, 3987896322, 3380386166, 3881265459, 178902222, 1052333561, 1646938768, 2881109550, 1345383063, 2174839473, 2145648329, 1177851568, 356490200, 3170160212, 3657326756, 4095655210, 539182852, 1037213858, 3681185952, 3463269705, 1194487893, 452869374, 1734951955, 4230950267, 3704477546, 2786659529, 267188230, 1624152458, 4034459551, 2358995707, 3942670106, 901779508, 1704085685, 1787416249, 2505033669, 1724443692, 3413073928, 1986308004, 27378331, 931863967, 4254809148, 1884125661, 1610337361, 1609802487, 2550490082, 2671916642, 2398321961, 1690955133, 3596392571, 2252737974, 4246106972, 716394775, 1911371146, 1193307040, 1421064521, 270554612, 2240649002, 1276503365, 2680340904, 3309207802, 3166455899, 1931022329, 2056282122, 2713734068, 96661477, 2902318669, 3706698213, 4244920928, 2025388767, 1776832936, 3117143153, 1765282732, 4025299274, 1301800327, 804974032, 3477857999, 686283264, 3177325250, 1916182636, 1877828057, 338943764, 3223288431, 4020203349, 3578121569, 3911496259, 4241952727, 907484781, 36706404, 1288184687, 2476160071, 1049747067, 1799518470, 2456418702, 126784750, 2788578092, 362798955, 3341096450, 2000516621, 2002555094, 2627911494, 2184957276, 1962125875, 1408621519, 521564162, 429390896, 3272738178, 1011816677, 1007406607, 1848324556, 2242384776, 3509083634, 3393403127, 121353500, 1765425610, 3006877811, 148175984, 312244987, 2957560264, 1551399554, 4241879553, 572314811, 1485471450, 2882566330, 1461553625, 2636891596, 3399148410, 3338729626, 388102229, 644769865, 4129864088, 1393448196, 307850813, 3624238690, 2581945509, 4083158490, 482074415, 1727636574, 3786605731, 1580902672, 3235151440, 4245466091, 3913803239, 3394796802, 493161041, 1703217826, 1761197961, 3628012021, 579023783, 976733520, 2574326129, 374077233, 2348807339, 3121752501, 3487361804, 1247977352, 3362910005, 1353621321, 1108886136, 2101471067, 538924011, 3628973418, 571505696, 2768338315, 1584473749, 3123562826, 2313118239, 2545352332, 3141059372, 4161941941, 2739560666, 457818851, 4081866824, 3737918763, 3619067030, 2932104990, 3154693052, 4191465459, 974979052, 1415510036, 4105428247, 5573682, 1251003408, 670665731, 1600408752, 2783604557, 3039549051, 1259958131, 3097824097, 3639436298, 2158810700, 3795024553, 773264995, 90548034, 2587080323, 2098423321, 3495388467, 2747066843, 4038255346, 1693722446, 1961557118, 1503575865, 3687283159, 124528454, 4252625661, 2497457723, 4063955867, 4081699603, 3431780536, 3610280983, 1902413076, 3006148068, 3062591663, 3506107293, 2898911689, 4245887849, 2693621977, 3461196266, 3716807769, 1181716613, 1618092086, 3460890031, 3598252824, 315711947, 3385258290, 283367876, 3470882257, 3492920763, 3563906440, 1688302534, 3680363421, 1011618422, 650427344, 2364957009, 1421169701, 1194575257, 2640985454, 429538941, 2200515337, 1123115051, 3304768590, 6699585, 2045647646, 3783057462, 2510436102, 2427232459, 2373476088, 2536565706, 3320600888, 3995975818, 3996487269, 947757335, 1091767767, 2466558947, 1819488147, 837913707, 658528820, 1421595292, 2625410508, 3193838164, 4130692177, 408516158, 4155336941, 2843841851, 2345048658, 2121610450, 3998363970, 3722873036, 3223407781, 3853122382, 3236423239, 653081527, 913912653, 1953071950, 3441286253, 1294971621, 1108868403, 3828687698, 1983867967, 972701312, 1486886388, 2164443813, 1999366651, 3005118708, 3705055634, 1748369362, 3550939591, 771110380, 487922913, 3129726892, 2763111553, 4040787539, 1414853296, 591075420, 3607597767, 2604219395, 3853476795, 4006920051, 778540023, 2103200502, 145781172, 4209209604, 777286516, 2940938385, 2421347814, 1399229761, 1508599323, 2220307997, 1678496687, 3473677163, 46096959, 3399797598, 1370394746, 3525214393, 1621605879, 1983280220, 1730307814, 1475825, 584176177, 369322137, 2500997990, 3903898263, 2063769010, 2375890071, 3670096293, 874985024, 59256776, 2880317972, 2286239441, 3263343653, 3880024916, 1794706643, 1085515063, 2924031150, 3519562344, 626070283, 1439481848, 1184505277, 3390579816, 1508150574, 3738929919, 1881795406, 1383495030, 1841586622, 1696740214, 673204103, 1965420277, 2657036981, 1796523344, 3709740793, 367940238, 3683340945, 4016007595, 2816276219, 3202403280, 3305361033, 681408377, 2536249419, 723663330, 954815699, 3156956991, 1517301719, 3916370943, 1158921657, 1540085199, 3802664271, 3692402229, 1435530570, 4128905390, 3107912473, 2879027050, 597894377, 3931044586, 601639867, 1692715364, 3200549950, 2666722342, 777394417, 2154912289, 936657086, 4036921946, 2617013019, 2505590968, 1603271701, 3436185508, 3062053028, 3026810841, 182329556, 1589831334, 577864726, 3327278866, 349369960, 2734341486, 621180833, 1318885260, 1624636415, 949682719, 3479513474, 124897233, 3615739097, 1415202670, 1429973532, 512824801, 2053990311, 3299535246, 3683509482, 594204522, 2389723914, 3692504899, 3787403800, 1386629750, 1518138262, 218034106, 2094801723, 3492455498, 3727618100, 3722293801, 3228251468, 1060105503, 3463635704, 1880671484, 3737546145, 285871818, 2738609665, 759142699, 2383185835, 2003812607, 3579476208, 2329931227, 337266685, 574985573, 2542015070, 3452083830, 2557103693, 729371273, 984083181, 2298326361, 2196704904, 1311224999, 3478220971, 3242233492, 3257899144, 3534849505, 845728258, 1949522935, 2058827344, 2078634245, 3253615988, 3874738823, 2489361991, 972872012, 876546869, 2965127640, 1954201117, 4155208171, 667025528, 1154105438, 2248974507, 1428996924, 267570136, 3833296895, 2341564790, 3647108290, 647162568, 1018881166, 309166410, 1561752934, 2309454701, 3597866071, 4065300776, 471702813, 710205486, 2873462545, 2101709538, 2209191549, 3816397203, 2105246015, 2971517690, 871289486, 2513343188, 1385121403, 513951621, 2334778393, 225299687, 557608152, 1180832005, 3277057939, 480075431, 3252435144, 2495658343, 2616684391, 3055607946, 1269372845, 4261648868, 4033713229, 1056290863, 2410033938, 1585390680, 2592574583, 3462523691, 1718155468, 2218570843, 3482044427, 2154815637, 2862592587, 896109518, 1259937609, 3550068467, 2329690648, 1049452138, 694263425, 1380545491, 4230399314, 489556745, 4127280049, 1228308796, 2441099236, 2945827314, 1649586450, 2419830913, 3111646435, 1047360714, 1625715702, 2148038946, 2668664724, 1384516705, 3963746017, 3921827992, 2006349474, 49755600, 2238496796, 670237753, 2549820639, 777726268, 2396045520, 922758266, 3152425650, 2191153469, 2511292287, 712525202, 723335769, 299550269, 3470409914, 2156539024, 825789644, 104987494, 1479840772, 3794872507, 1270737241, 3511462443, 2808798890, 2900760540, 3471428861, 2646936674, 1409607060, 1482773451, 1689547184, 1903475347, 2821585165, 4285207729, 2130526025, 318950693, 608409523, 1079199257, 3447201500, 2365053072, 4069434894, 1681818052, 1849717652, 2773633013, 336053591, 1944954247, 3763764626, 3058135712, 3995290307, 929965556, 685148834, 991592765, 172265716, 1821487515, 3175637548, 1324276873, 3781787945, 3364138302, 3094915820, 851418136, 1235950011, 2691209794, 4263870369, 2381729553, 1927755079, 587393368, 3151322593, 3517401728, 420445055, 3054456517], "pos": 623}}]</state>
   </prng>
   <output prefix='simulation'>
      <properties shape='(7)' stride='200'>
       [ step, time{picosecond}, conserved, temperature{kelvin}, kinetic_md{electronvolt}, 
         kinetic_cv{electronvolt}, potential{electronvolt} ]
      </properties>
      <trajectory filename='pos' stride='2' flush='200'>positions{angstrom}</trajectory>
      <trajectory filename='vel' stride='2' flush='200'>velocities</trajectory>
      <checkpoint stride='4000'>6</checkpoint>
   </output>
   <step>20000</step>
   <total_steps>20000</total_steps>
   <ffsocket mode='unix' name='driver'>
      <address>oh-nve</address>
      <latency>  1.00000000e-10</latency>
   </ffsocket>
   <system>
      <forces>
         <force forcefield='driver'>
         </force>
      </forces>
      <ensemble>
         <temperature>  3.45182857e-04</temperature>
         <hamiltonian_weights shape='(1)'> [   1.00000000e+00 ] </hamiltonian_weights>
         <time>  4.13413730e+05</time>
      </ensemble>
      <motion mode='dynamics'>
         <fixcom>False</fixcom>
         <dynamics>
            <timestep>  2.06706865e+01</timestep>
            <nmts shape='(1)'> [ 1 ] </nmts>
         </dynamics>
      </motion>
      <beads natoms='2' nbeads='1'>
         <q shape='(1, 6)'>
          [   1.32378775e+01,  -1.92002349e+01,   3.58453842e+01,   1.39116426e+01,  -1.86754929e+01, 
              3.42391767e+01 ]
         </q>
         <p shape='(1, 6)'>
          [   8.43447260e-01,  -1.84987455e+00,   2.11062573e+00,   4.93975188e-01,   4.86758896e-01, 
              7.30282405e-01 ]
         </p>
         <m shape='(2)'> [   2.91651223e+04,   1.83736223e+03 ] </m>
         <names shape='(2)'> [ O, H ] </names>
      </beads>
      <cell shape='(3, 3)'>
       [   1.88972610e+02,   1.15712351e-14,   1.15712351e-14,   0.00000000e+00,   1.88972610e+02, 
           1.15712351e-14,   0.00000000e+00,   0.00000000e+00,   1.88972610e+02 ]
      </cell>
   </system>
</simulation>
