2
# CELL(abcABC):  188.97261   188.97261   188.97261    90.00000    90.00000    90.00000  Step:           0  Bead:       0 positions{angstrom}  cell{atomic_unit}
       O -2.39242e+00 -4.96111e-01 -1.08288e+00
       H -2.70955e+00 -9.84241e-01 -1.85579e+00
2
# CELL(abcABC):  188.97261   188.97261   188.97261    90.00000    90.00000    90.00000  Step:           2  Bead:       0 positions{angstrom}  cell{atomic_unit}
       O -2.39174e+00 -4.97282e-01 -1.08023e+00
       H -2.70432e+00 -9.81885e-01 -1.86410e+00
2
# CELL(abcABC):  188.97261   188.97261   188.97261    90.00000    90.00000    90.00000  Step:           4  Bead:       0 positions{angstrom}  cell{atomic_unit}
       O -2.39110e+00 -4.98502e-01 -1.07765e+00
       H -2.69860e+00 -9.78756e-01 -1.87116e+00
2
# CELL(abcABC):  188.97261   188.97261   188.97261    90.00000    90.00000    90.00000  Step:           6  Bead:       0 positions{angstrom}  cell{atomic_unit}
       O -2.39052e+00 -4.99824e-01 -1.07525e+00
       H -2.69183e+00 -9.73998e-01 -1.87553e+00
2
# CELL(abcABC):  188.97261   188.97261   188.97261    90.00000    90.00000    90.00000  Step:           8  Bead:       0 positions{angstrom}  cell{atomic_unit}
       O -2.39002e+00 -5.01256e-01 -1.07303e+00
       H -2.68396e+00 -9.67500e-01 -1.87696e+00
2
# CELL(abcABC):  188.97261   188.97261   188.97261    90.00000    90.00000    90.00000  Step:          10  Bead:       0 positions{angstrom}  cell{atomic_unit}
       O -2.38955e+00 -5.02756e-01 -1.07092e+00
       H -2.67540e+00 -9.59924e-01 -1.87653e+00
2
# CELL(abcABC):  188.97261   188.97261   188.97261    90.00000    90.00000    90.00000  Step:          12  Bead:       0 positions{angstrom}  cell{atomic_unit}
       O -2.38909e+00 -5.04252e-01 -1.06881e+00
       H -2.66688e+00 -9.52403e-01 -1.87621e+00
2
# CELL(abcABC):  188.97261   188.97261   188.97261    90.00000    90.00000    90.00000  Step:          14  Bead:       0 positions{angstrom}  cell{atomic_unit}
       O -2.38857e+00 -5.05676e-01 -1.06657e+00
       H -2.65907e+00 -9.46022e-01 -1.87794e+00
2
# CELL(abcABC):  188.97261   188.97261   188.97261    90.00000    90.00000    90.00000  Step:          16  Bead:       0 positions{angstrom}  cell{atomic_unit}
       O -2.38800e+00 -5.06998e-01 -1.06414e+00
       H -2.65226e+00 -9.41266e-01 -1.88268e+00
2
# CELL(abcABC):  188.97261   188.97261   188.97261    90.00000    90.00000    90.00000  Step:          18  Bead:       0 positions{angstrom}  cell{atomic_unit}
       O -2.38738e+00 -5.08241e-01 -1.06156e+00
       H -2.64621e+00 -9.37780e-01 -1.88980e+00
2
# CELL(abcABC):  188.97261   188.97261   188.97261    90.00000    90.00000    90.00000  Step:          20  Bead:       0 positions{angstrom}  cell{atomic_unit}
       O -2.38674e+00 -5.09464e-01 -1.05895e+00
       H -2.64035e+00 -9.34585e-01 -1.89747e+00
2
# CELL(abcABC):  188.97261   188.97261   188.97261    90.00000    90.00000    90.00000  Step:          22  Bead:       0 positions{angstrom}  cell{atomic_unit}
       O -2.38614e+00 -5.10738e-01 -1.05643e+00
       H -2.63401e+00 -9.30598e-01 -1.90358e+00
2
# CELL(abcABC):  188.97261   188.97261   188.97261    90.00000    90.00000    90.00000  Step:          24  Bead:       0 positions{angstrom}  cell{atomic_unit}
       O -2.38559e+00 -5.12105e-01 -1.05410e+00
       H -2.62681e+00 -9.25137e-01 -1.90671e+00
2
# CELL(abcABC):  188.97261   188.97261   188.97261    90.00000    90.00000    90.00000  Step:          26  Bead:       0 positions{angstrom}  cell{atomic_unit}
       O -2.38510e+00 -5.13564e-01 -1.05197e+00
       H -2.61873e+00 -9.18193e-01 -1.90678e+00
2
# CELL(abcABC):  188.97261   188.97261   188.97261    90.00000    90.00000    90.00000  Step:          28  Bead:       0 positions{angstrom}  cell{atomic_unit}
       O -2.38463e+00 -5.15077e-01 -1.04994e+00
       H -2.61017e+00 -9.10412e-01 -1.90509e+00
2
# CELL(abcABC):  188.97261   188.97261   188.97261    90.00000    90.00000    90.00000  Step:          30  Bead:       0 positions{angstrom}  cell{atomic_unit}
       O -2.38416e+00 -5.16579e-01 -1.04790e+00
       H -2.60171e+00 -9.02801e-01 -1.90378e+00
2
# CELL(abcABC):  188.97261   188.97261   188.97261    90.00000    90.00000    90.00000  Step:          32  Bead:       0 positions{angstrom}  cell{atomic_unit}
       O -2.38365e+00 -5.18014e-01 -1.04570e+00
       H -2.59385e+00 -8.96257e-01 -1.90483e+00
2
# CELL(abcABC):  188.97261   188.97261   188.97261    90.00000    90.00000    90.00000  Step:          34  Bead:       0 positions{angstrom}  cell{atomic_unit}
       O -2.38310e+00 -5.19360e-01 -1.04330e+00
       H -2.58677e+00 -8.91113e-01 -1.90906e+00
2
# CELL(abcABC):  188.97261   188.97261   188.97261    90.00000    90.00000    90.00000  Step:          36  Bead:       0 positions{angstrom}  cell{atomic_unit}
       O -2.38251e+00 -5.20643e-01 -1.04075e+00
       H -2.58024e+00 -8.86981e-01 -1.91565e+00
2
# CELL(abcABC):  188.97261   188.97261   188.97261    90.00000    90.00000    90.00000  Step:          38  Bead:       0 positions{angstrom}  cell{atomic_unit}
       O -2.38191e+00 -5.21917e-01 -1.03819e+00
       H -2.57379e+00 -8.82984e-01 -1.92255e+00
2
# CELL(abcABC):  188.97261   188.97261   188.97261    90.00000    90.00000    90.00000  Step:          40  Bead:       0 positions{angstrom}  cell{atomic_unit}
       O -2.38134e+00 -5.23240e-01 -1.03574e+00
       H -2.56693e+00 -8.78222e-01 -1.92757e+00
2
# CELL(abcABC):  188.97261   188.97261   188.97261    90.00000    90.00000    90.00000  Step:          42  Bead:       0 positions{angstrom}  cell{atomic_unit}
       O -2.38081e+00 -5.24643e-01 -1.03350e+00
       H -2.55940e+00 -8.72180e-01 -1.92937e+00
2
# CELL(abcABC):  188.97261   188.97261   188.97261    90.00000    90.00000    90.00000  Step:          44  Bead:       0 positions{angstrom}  cell{atomic_unit}
       O -2.38032e+00 -5.26123e-01 -1.03145e+00
       H -2.55125e+00 -8.64926e-01 -1.92805e+00
2
# CELL(abcABC):  188.97261   188.97261   188.97261    90.00000    90.00000    90.00000  Step:          46  Bead:       0 positions{angstrom}  cell{atomic_unit}
       O -2.37985e+00 -5.27641e-01 -1.02950e+00
       H -2.54278e+00 -8.57057e-01 -1.92511e+00
2
# CELL(abcABC):  188.97261   188.97261   188.97261    90.00000    90.00000    90.00000  Step:          48  Bead:       0 positions{angstrom}  cell{atomic_unit}
       O -2.37937e+00 -5.29144e-01 -1.02752e+00
       H -2.53444e+00 -8.49431e-01 -1.92284e+00
2
# CELL(abcABC):  188.97261   188.97261   188.97261    90.00000    90.00000    90.00000  Step:          50  Bead:       0 positions{angstrom}  cell{atomic_unit}
       O -2.37887e+00 -5.30587e-01 -1.02536e+00
       H -2.52655e+00 -8.42754e-01 -1.92323e+00
2
# CELL(abcABC):  188.97261   188.97261   188.97261    90.00000    90.00000    90.00000  Step:          52  Bead:       0 positions{angstrom}  cell{atomic_unit}
       O -2.37832e+00 -5.31957e-01 -1.02300e+00
       H -2.51921e+00 -8.37227e-01 -1.92692e+00
2
# CELL(abcABC):  188.97261   188.97261   188.97261    90.00000    90.00000    90.00000  Step:          54  Bead:       0 positions{angstrom}  cell{atomic_unit}
       O -2.37776e+00 -5.33280e-01 -1.02049e+00
       H -2.51223e+00 -8.32463e-01 -1.93287e+00
2
# CELL(abcABC):  188.97261   188.97261   188.97261    90.00000    90.00000    90.00000  Step:          56  Bead:       0 positions{angstrom}  cell{atomic_unit}
       O -2.37720e+00 -5.34601e-01 -1.01798e+00
       H -2.50525e+00 -8.27718e-01 -1.93886e+00
2
# CELL(abcABC):  188.97261   188.97261   188.97261    90.00000    90.00000    90.00000  Step:          58  Bead:       0 positions{angstrom}  cell{atomic_unit}
       O -2.37665e+00 -5.35966e-01 -1.01561e+00
       H -2.49797e+00 -8.22281e-01 -1.94268e+00
2
# CELL(abcABC):  188.97261   188.97261   188.97261    90.00000    90.00000    90.00000  Step:          60  Bead:       0 positions{angstrom}  cell{atomic_unit}
       O -2.37614e+00 -5.37398e-01 -1.01346e+00
       H -2.49024e+00 -8.15790e-01 -1.94308e+00
2
# CELL(abcABC):  188.97261   188.97261   188.97261    90.00000    90.00000    90.00000  Step:          62  Bead:       0 positions{angstrom}  cell{atomic_unit}
       O -2.37564e+00 -5.38888e-01 -1.01150e+00
       H -2.48213e+00 -8.08361e-01 -1.94035e+00
2
# CELL(abcABC):  188.97261   188.97261   188.97261    90.00000    90.00000    90.00000  Step:          64  Bead:       0 positions{angstrom}  cell{atomic_unit}
       O -2.37516e+00 -5.40405e-01 -1.00963e+00
       H -2.47386e+00 -8.00518e-01 -1.93620e+00
2
# CELL(abcABC):  188.97261   188.97261   188.97261    90.00000    90.00000    90.00000  Step:          66  Bead:       0 positions{angstrom}  cell{atomic_unit}
       O -2.37467e+00 -5.41905e-01 -1.00770e+00
       H -2.46568e+00 -7.92944e-01 -1.93302e+00
2
# CELL(abcABC):  188.97261   188.97261   188.97261    90.00000    90.00000    90.00000  Step:          68  Bead:       0 positions{angstrom}  cell{atomic_unit}
       O -2.37417e+00 -5.43355e-01 -1.00558e+00
       H -2.45779e+00 -7.86158e-01 -1.93276e+00
2
# CELL(abcABC):  188.97261   188.97261   188.97261    90.00000    90.00000    90.00000  Step:          70  Bead:       0 positions{angstrom}  cell{atomic_unit}
       O -2.37364e+00 -5.44749e-01 -1.00325e+00
       H -2.45021e+00 -7.80257e-01 -1.93586e+00
2
# CELL(abcABC):  188.97261   188.97261   188.97261    90.00000    90.00000    90.00000  Step:          72  Bead:       0 positions{angstrom}  cell{atomic_unit}
       O -2.37311e+00 -5.46110e-01 -1.00080e+00
       H -2.44279e+00 -7.74887e-01 -1.94107e+00
2
# CELL(abcABC):  188.97261   188.97261   188.97261    90.00000    90.00000    90.00000  Step:          74  Bead:       0 positions{angstrom}  cell{atomic_unit}
       O -2.37257e+00 -5.47474e-01 -9.98352e-01
       H -2.43537e+00 -7.69462e-01 -1.94603e+00
2
# CELL(abcABC):  188.97261   188.97261   188.97261    90.00000    90.00000    90.00000  Step:          76  Bead:       0 positions{angstrom}  cell{atomic_unit}
       O -2.37205e+00 -5.48874e-01 -9.96063e-01
       H -2.42778e+00 -7.63463e-01 -1.94854e+00
2
# CELL(abcABC):  188.97261   188.97261   188.97261    90.00000    90.00000    90.00000  Step:          78  Bead:       0 positions{angstrom}  cell{atomic_unit}
       O -2.37153e+00 -5.50325e-01 -9.93998e-01
       H -2.41998e+00 -7.56663e-01 -1.94749e+00
2
# CELL(abcABC):  188.97261   188.97261   188.97261    90.00000    90.00000    90.00000  Step:          80  Bead:       0 positions{angstrom}  cell{atomic_unit}
       O -2.37103e+00 -5.51818e-01 -9.92127e-01
       H -2.41203e+00 -7.49198e-01 -1.94337e+00
2
# CELL(abcABC):  188.97261   188.97261   188.97261    90.00000    90.00000    90.00000  Step:          82  Bead:       0 positions{angstrom}  cell{atomic_unit}
       O -2.37053e+00 -5.53326e-01 -9.90330e-01
       H -2.40403e+00 -7.41484e-01 -1.93807e+00
2
# CELL(abcABC):  188.97261   188.97261   188.97261    90.00000    90.00000    90.00000  Step:          84  Bead:       0 positions{angstrom}  cell{atomic_unit}
       O -2.37003e+00 -5.54819e-01 -9.88453e-01
       H -2.39606e+00 -7.34020e-01 -1.93404e+00
2
# CELL(abcABC):  188.97261   188.97261   188.97261    90.00000    90.00000    90.00000  Step:          86  Bead:       0 positions{angstrom}  cell{atomic_unit}
       O -2.36952e+00 -5.56275e-01 -9.86379e-01
       H -2.38819e+00 -7.27146e-01 -1.93313e+00
2
# CELL(abcABC):  188.97261   188.97261   188.97261    90.00000    90.00000    90.00000  Step:          88  Bead:       0 positions{angstrom}  cell{atomic_unit}
       O -2.36901e+00 -5.57692e-01 -9.84093e-01
       H -2.38037e+00 -7.20883e-01 -1.93560e+00
2
# CELL(abcABC):  188.97261   188.97261   188.97261    90.00000    90.00000    90.00000  Step:          90  Bead:       0 positions{angstrom}  cell{atomic_unit}
       O -2.36850e+00 -5.59088e-01 -9.81687e-01
       H -2.37259e+00 -7.14947e-01 -1.93996e+00
2
# CELL(abcABC):  188.97261   188.97261   188.97261    90.00000    90.00000    90.00000  Step:          92  Bead:       0 positions{angstrom}  cell{atomic_unit}
       O -2.36799e+00 -5.60490e-01 -9.79315e-01
       H -2.36480e+00 -7.08927e-01 -1.94378e+00
2
# CELL(abcABC):  188.97261   188.97261   188.97261    90.00000    90.00000    90.00000  Step:          94  Bead:       0 positions{angstrom}  cell{atomic_unit}
       O -2.36747e+00 -5.61918e-01 -9.77113e-01
       H -2.35703e+00 -7.02492e-01 -1.94490e+00
2
# CELL(abcABC):  188.97261   188.97261   188.97261    90.00000    90.00000    90.00000  Step:          96  Bead:       0 positions{angstrom}  cell{atomic_unit}
       O -2.36696e+00 -5.63379e-01 -9.75141e-01
       H -2.34929e+00 -6.95528e-01 -1.94239e+00
2
# CELL(abcABC):  188.97261   188.97261   188.97261    90.00000    90.00000    90.00000  Step:          98  Bead:       0 positions{angstrom}  cell{atomic_unit}
       O -2.36644e+00 -5.64866e-01 -9.73355e-01
       H -2.34161e+00 -6.88160e-01 -1.93692e+00
2
# CELL(abcABC):  188.97261   188.97261   188.97261    90.00000    90.00000    90.00000  Step:         100  Bead:       0 positions{angstrom}  cell{atomic_unit}
       O -2.36592e+00 -5.66360e-01 -9.71626e-01
       H -2.33394e+00 -6.80671e-01 -1.93052e+00
2
# CELL(abcABC):  188.97261   188.97261   188.97261    90.00000    90.00000    90.00000  Step:         102  Bead:       0 positions{angstrom}  cell{atomic_unit}
       O -2.36540e+00 -5.67842e-01 -9.69800e-01
       H -2.32623e+00 -6.73366e-01 -1.92569e+00
2
# CELL(abcABC):  188.97261   188.97261   188.97261    90.00000    90.00000    90.00000  Step:         104  Bead:       0 positions{angstrom}  cell{atomic_unit}
       O -2.36489e+00 -5.69302e-01 -9.67766e-01
       H -2.31837e+00 -6.66422e-01 -1.92415e+00
2
# CELL(abcABC):  188.97261   188.97261   188.97261    90.00000    90.00000    90.00000  Step:         106  Bead:       0 positions{angstrom}  cell{atomic_unit}
       O -2.36440e+00 -5.70741e-01 -9.65523e-01
       H -2.31036e+00 -6.59816e-01 -1.92592e+00
2
# CELL(abcABC):  188.97261   188.97261   188.97261    90.00000    90.00000    90.00000  Step:         108  Bead:       0 positions{angstrom}  cell{atomic_unit}
       O -2.36390e+00 -5.72170e-01 -9.63177e-01
       H -2.30226e+00 -6.53366e-01 -1.92934e+00
2
# CELL(abcABC):  188.97261   188.97261   188.97261    90.00000    90.00000    90.00000  Step:         110  Bead:       0 positions{angstrom}  cell{atomic_unit}
       O -2.36341e+00 -5.73603e-01 -9.60883e-01
       H -2.29421e+00 -6.46848e-01 -1.93193e+00
2
# CELL(abcABC):  188.97261   188.97261   188.97261    90.00000    90.00000    90.00000  Step:         112  Bead:       0 positions{angstrom}  cell{atomic_unit}
       O -2.36290e+00 -5.75050e-01 -9.58772e-01
       H -2.28637e+00 -6.40113e-01 -1.93161e+00
2
# CELL(abcABC):  188.97261   188.97261   188.97261    90.00000    90.00000    90.00000  Step:         114  Bead:       0 positions{angstrom}  cell{atomic_unit}
       O -2.36237e+00 -5.76512e-01 -9.56892e-01
       H -2.27882e+00 -6.33132e-01 -1.92763e+00
2
# CELL(abcABC):  188.97261   188.97261   188.97261    90.00000    90.00000    90.00000  Step:         116  Bead:       0 positions{angstrom}  cell{atomic_unit}
       O -2.36183e+00 -5.77985e-01 -9.55187e-01
       H -2.27151e+00 -6.25988e-01 -1.92087e+00
2
# CELL(abcABC):  188.97261   188.97261   188.97261    90.00000    90.00000    90.00000  Step:         118  Bead:       0 positions{angstrom}  cell{atomic_unit}
       O -2.36128e+00 -5.79459e-01 -9.53522e-01
       H -2.26425e+00 -6.18809e-01 -1.91347e+00
2
# CELL(abcABC):  188.97261   188.97261   188.97261    90.00000    90.00000    90.00000  Step:         120  Bead:       0 positions{angstrom}  cell{atomic_unit}
       O -2.36075e+00 -5.80929e-01 -9.51742e-01
       H -2.25681e+00 -6.11703e-01 -1.90790e+00
2
# CELL(abcABC):  188.97261   188.97261   188.97261    90.00000    90.00000    90.00000  Step:         122  Bead:       0 positions{angstrom}  cell{atomic_unit}
       O -2.36024e+00 -5.82393e-01 -9.49748e-01
       H -2.24899e+00 -6.04705e-01 -1.90572e+00
2
# CELL(abcABC):  188.97261   188.97261   188.97261    90.00000    90.00000    90.00000  Step:         124  Bead:       0 positions{angstrom}  cell{atomic_unit}
       O -2.35975e+00 -5.83851e-01 -9.47553e-01
       H -2.24081e+00 -5.97783e-01 -1.90673e+00
2
# CELL(abcABC):  188.97261   188.97261   188.97261    90.00000    90.00000    90.00000  Step:         126  Bead:       0 positions{angstrom}  cell{atomic_unit}
       O -2.35927e+00 -5.85309e-01 -9.45272e-01
       H -2.23246e+00 -5.90884e-01 -1.90912e+00
2
# CELL(abcABC):  188.97261   188.97261   188.97261    90.00000    90.00000    90.00000  Step:         128  Bead:       0 positions{angstrom}  cell{atomic_unit}
       O -2.35878e+00 -5.86766e-01 -9.43060e-01
       H -2.22426e+00 -5.83980e-01 -1.91040e+00
2
# CELL(abcABC):  188.97261   188.97261   188.97261    90.00000    90.00000    90.00000  Step:         130  Bead:       0 positions{angstrom}  cell{atomic_unit}
       O -2.35827e+00 -5.88223e-01 -9.41042e-01
       H -2.21648e+00 -5.77087e-01 -1.90861e+00
2
# CELL(abcABC):  188.97261   188.97261   188.97261    90.00000    90.00000    90.00000  Step:         132  Bead:       0 positions{angstrom}  cell{atomic_unit}
       O -2.35772e+00 -5.89677e-01 -9.39252e-01
       H -2.20924e+00 -5.70236e-01 -1.90320e+00
2
# CELL(abcABC):  188.97261   188.97261   188.97261    90.00000    90.00000    90.00000  Step:         134  Bead:       0 positions{angstrom}  cell{atomic_unit}
       O -2.35715e+00 -5.91128e-01 -9.37623e-01
       H -2.20239e+00 -5.63434e-01 -1.89522e+00
2
# CELL(abcABC):  188.97261   188.97261   188.97261    90.00000    90.00000    90.00000  Step:         136  Bead:       0 positions{angstrom}  cell{atomic_unit}
       O -2.35658e+00 -5.92578e-01 -9.36016e-01
       H -2.19559e+00 -5.56639e-01 -1.88691e+00
2
# CELL(abcABC):  188.97261   188.97261   188.97261    90.00000    90.00000    90.00000  Step:         138  Bead:       0 positions{angstrom}  cell{atomic_unit}
       O -2.35603e+00 -5.94034e-01 -9.34279e-01
       H -2.18844e+00 -5.49764e-01 -1.88066e+00
2
# CELL(abcABC):  188.97261   188.97261   188.97261    90.00000    90.00000    90.00000  Step:         140  Bead:       0 positions{angstrom}  cell{atomic_unit}
       O -2.35551e+00 -5.95500e-01 -9.32326e-01
       H -2.18068e+00 -5.42728e-01 -1.87783e+00
2
# CELL(abcABC):  188.97261   188.97261   188.97261    90.00000    90.00000    90.00000  Step:         142  Bead:       0 positions{angstrom}  cell{atomic_unit}
       O -2.35503e+00 -5.96976e-01 -9.30183e-01
       H -2.17236e+00 -5.35525e-01 -1.87803e+00
2
# CELL(abcABC):  188.97261   188.97261   188.97261    90.00000    90.00000    90.00000  Step:         144  Bead:       0 positions{angstrom}  cell{atomic_unit}
       O -2.35456e+00 -5.98456e-01 -9.27971e-01
       H -2.16384e+00 -5.28254e-01 -1.87931e+00
2
# CELL(abcABC):  188.97261   188.97261   188.97261    90.00000    90.00000    90.00000  Step:         146  Bead:       0 positions{angstrom}  cell{atomic_unit}
       O -2.35408e+00 -5.99930e-01 -9.25846e-01
       H -2.15560e+00 -5.21087e-01 -1.87921e+00
2
# CELL(abcABC):  188.97261   188.97261   188.97261    90.00000    90.00000    90.00000  Step:         148  Bead:       0 positions{angstrom}  cell{atomic_unit}
       O -2.35356e+00 -6.01388e-01 -9.23920e-01
       H -2.14802e+00 -5.14183e-01 -1.87596e+00
2
# CELL(abcABC):  188.97261   188.97261   188.97261    90.00000    90.00000    90.00000  Step:         150  Bead:       0 positions{angstrom}  cell{atomic_unit}
       O -2.35298e+00 -6.02825e-01 -9.22217e-01
       H -2.14119e+00 -5.07602e-01 -1.86918e+00
2
# CELL(abcABC):  188.97261   188.97261   188.97261    90.00000    90.00000    90.00000  Step:         152  Bead:       0 positions{angstrom}  cell{atomic_unit}
       O -2.35238e+00 -6.04248e-01 -9.20658e-01
       H -2.13488e+00 -5.01250e-01 -1.86008e+00
2
# CELL(abcABC):  188.97261   188.97261   188.97261    90.00000    90.00000    90.00000  Step:         154  Bead:       0 positions{angstrom}  cell{atomic_unit}
       O -2.35177e+00 -6.05670e-01 -9.19103e-01
       H -2.12858e+00 -4.94901e-01 -1.85095e+00
2
# CELL(abcABC):  188.97261   188.97261   188.97261    90.00000    90.00000    90.00000  Step:         156  Bead:       0 positions{angstrom}  cell{atomic_unit}
       O -2.35120e+00 -6.07110e-01 -9.17406e-01
       H -2.12174e+00 -4.88281e-01 -1.84406e+00
2
# CELL(abcABC):  188.97261   188.97261   188.97261    90.00000    90.00000    90.00000  Step:         158  Bead:       0 positions{angstrom}  cell{atomic_unit}
       O -2.35068e+00 -6.08577e-01 -9.15494e-01
       H -2.11405e+00 -4.81225e-01 -1.84058e+00
2
# CELL(abcABC):  188.97261   188.97261   188.97261    90.00000    90.00000    90.00000  Step:         160  Bead:       0 positions{angstrom}  cell{atomic_unit}
       O -2.35021e+00 -6.10068e-01 -9.13406e-01
       H -2.10565e+00 -4.73785e-01 -1.83990e+00
2
# CELL(abcABC):  188.97261   188.97261   188.97261    90.00000    90.00000    90.00000  Step:         162  Bead:       0 positions{angstrom}  cell{atomic_unit}
       O -2.34974e+00 -6.11566e-01 -9.11268e-01
       H -2.09705e+00 -4.66234e-01 -1.84001e+00
2
# CELL(abcABC):  188.97261   188.97261   188.97261    90.00000    90.00000    90.00000  Step:         164  Bead:       0 positions{angstrom}  cell{atomic_unit}
       O -2.34926e+00 -6.13048e-01 -9.09232e-01
       H -2.08888e+00 -4.58934e-01 -1.83851e+00
2
# CELL(abcABC):  188.97261   188.97261   188.97261    90.00000    90.00000    90.00000  Step:         166  Bead:       0 positions{angstrom}  cell{atomic_unit}
       O -2.34871e+00 -6.14497e-01 -9.07397e-01
       H -2.08162e+00 -4.52167e-01 -1.83381e+00
2
# CELL(abcABC):  188.97261   188.97261   188.97261    90.00000    90.00000    90.00000  Step:         168  Bead:       0 positions{angstrom}  cell{atomic_unit}
       O -2.34810e+00 -6.15909e-01 -9.05774e-01
       H -2.07532e+00 -4.45990e-01 -1.82574e+00
2
# CELL(abcABC):  188.97261   188.97261   188.97261    90.00000    90.00000    90.00000  Step:         170  Bead:       0 positions{angstrom}  cell{atomic_unit}
       O -2.34746e+00 -6.17297e-01 -9.04279e-01
       H -2.06962e+00 -4.40185e-01 -1.81564e+00
2
# CELL(abcABC):  188.97261   188.97261   188.97261    90.00000    90.00000    90.00000  Step:         172  Bead:       0 positions{angstrom}  cell{atomic_unit}
       O -2.34682e+00 -6.18688e-01 -9.02769e-01
       H -2.06385e+00 -4.34330e-01 -1.80579e+00
2
# CELL(abcABC):  188.97261   188.97261   188.97261    90.00000    90.00000    90.00000  Step:         174  Bead:       0 positions{angstrom}  cell{atomic_unit}
       O -2.34623e+00 -6.20110e-01 -9.01109e-01
       H -2.05732e+00 -4.27985e-01 -1.79832e+00
2
# CELL(abcABC):  188.97261   188.97261   188.97261    90.00000    90.00000    90.00000  Step:         176  Bead:       0 positions{angstrom}  cell{atomic_unit}
       O -2.34570e+00 -6.21577e-01 -8.99239e-01
       H -2.04973e+00 -4.20929e-01 -1.79417e+00
2
# CELL(abcABC):  188.97261   188.97261   188.97261    90.00000    90.00000    90.00000  Step:         178  Bead:       0 positions{angstrom}  cell{atomic_unit}
       O -2.34523e+00 -6.23080e-01 -8.97210e-01
       H -2.04130e+00 -4.13307e-01 -1.79256e+00
2
# CELL(abcABC):  188.97261   188.97261   188.97261    90.00000    90.00000    90.00000  Step:         180  Bead:       0 positions{angstrom}  cell{atomic_unit}
       O -2.34477e+00 -6.24590e-01 -8.95150e-01
       H -2.03270e+00 -4.05575e-01 -1.79143e+00
2
# CELL(abcABC):  188.97261   188.97261   188.97261    90.00000    90.00000    90.00000  Step:         182  Bead:       0 positions{angstrom}  cell{atomic_unit}
       O -2.34427e+00 -6.26072e-01 -8.93202e-01
       H -2.02473e+00 -3.98280e-01 -1.78852e+00
2
# CELL(abcABC):  188.97261   188.97261   188.97261    90.00000    90.00000    90.00000  Step:         184  Bead:       0 positions{angstrom}  cell{atomic_unit}
       O -2.34369e+00 -6.27503e-01 -8.91455e-01
       H -2.01790e+00 -3.91796e-01 -1.78243e+00
2
# CELL(abcABC):  188.97261   188.97261   188.97261    90.00000    90.00000    90.00000  Step:         186  Bead:       0 positions{angstrom}  cell{atomic_unit}
       O -2.34305e+00 -6.28881e-01 -8.89907e-01
       H -2.01222e+00 -3.86147e-01 -1.77317e+00
2
# CELL(abcABC):  188.97261   188.97261   188.97261    90.00000    90.00000    90.00000  Step:         188  Bead:       0 positions{angstrom}  cell{atomic_unit}
       O -2.34236e+00 -6.30230e-01 -8.88468e-01
       H -2.00719e+00 -3.80970e-01 -1.76220e+00
2
# CELL(abcABC):  188.97261   188.97261   188.97261    90.00000    90.00000    90.00000  Step:         190  Bead:       0 positions{angstrom}  cell{atomic_unit}
       O -2.34169e+00 -6.31588e-01 -8.86997e-01
       H -2.00196e+00 -3.75646e-01 -1.75172e+00
2
# CELL(abcABC):  188.97261   188.97261   188.97261    90.00000    90.00000    90.00000  Step:         192  Bead:       0 positions{angstrom}  cell{atomic_unit}
       O -2.34108e+00 -6.32992e-01 -8.85370e-01
       H -1.99576e+00 -3.69590e-01 -1.74371e+00
2
# CELL(abcABC):  188.97261   188.97261   188.97261    90.00000    90.00000    90.00000  Step:         194  Bead:       0 positions{angstrom}  cell{atomic_unit}
       O -2.34055e+00 -6.34457e-01 -8.83544e-01
       H -1.98828e+00 -3.62559e-01 -1.73888e+00
2
# CELL(abcABC):  188.97261   188.97261   188.97261    90.00000    90.00000    90.00000  Step:         196  Bead:       0 positions{angstrom}  cell{atomic_unit}
       O -2.34007e+00 -6.35967e-01 -8.81576e-01
       H -1.97988e+00 -3.54819e-01 -1.73629e+00
2
# CELL(abcABC):  188.97261   188.97261   188.97261    90.00000    90.00000    90.00000  Step:         198  Bead:       0 positions{angstrom}  cell{atomic_unit}
       O -2.33960e+00 -6.37481e-01 -8.79596e-01
       H -1.97140e+00 -3.47018e-01 -1.73389e+00
2
# CELL(abcABC):  188.97261   188.97261   188.97261    90.00000    90.00000    90.00000  Step:         200  Bead:       0 positions{angstrom}  cell{atomic_unit}
       O -2.33908e+00 -6.38954e-01 -8.77736e-01
       H -1.96375e+00 -3.39867e-01 -1.72958e+00
2
# CELL(abcABC):  188.97261   188.97261   188.97261    90.00000    90.00000    90.00000  Step:         202  Bead:       0 positions{angstrom}  cell{atomic_unit}
       O -2.33847e+00 -6.40358e-01 -8.76072e-01
       H -1.95746e+00 -3.33808e-01 -1.72217e+00
2
# CELL(abcABC):  188.97261   188.97261   188.97261    90.00000    90.00000    90.00000  Step:         204  Bead:       0 positions{angstrom}  cell{atomic_unit}
       O -2.33778e+00 -6.41696e-01 -8.74591e-01
       H -1.95248e+00 -3.28800e-01 -1.71186e+00
2
# CELL(abcABC):  188.97261   188.97261   188.97261    90.00000    90.00000    90.00000  Step:         206  Bead:       0 positions{angstrom}  cell{atomic_unit}
       O -2.33705e+00 -6.43001e-01 -8.73199e-01
       H -1.94815e+00 -3.24317e-01 -1.70013e+00
2
# CELL(abcABC):  188.97261   188.97261   188.97261    90.00000    90.00000    90.00000  Step:         208  Bead:       0 positions{angstrom}  cell{atomic_unit}
       O -2.33635e+00 -6.44324e-01 -8.71761e-01
       H -1.94348e+00 -3.19551e-01 -1.68913e+00
2
# CELL(abcABC):  188.97261   188.97261   188.97261    90.00000    90.00000    90.00000  Step:         210  Bead:       0 positions{angstrom}  cell{atomic_unit}
       O -2.33571e+00 -6.45709e-01 -8.70166e-01
       H -1.93760e+00 -3.13793e-01 -1.68062e+00
2
# CELL(abcABC):  188.97261   188.97261   188.97261    90.00000    90.00000    90.00000  Step:         212  Bead:       0 positions{angstrom}  cell{atomic_unit}
       O -2.33517e+00 -6.47171e-01 -8.68384e-01
       H -1.93027e+00 -3.06819e-01 -1.67508e+00
2
# CELL(abcABC):  188.97261   188.97261   188.97261    90.00000    90.00000    90.00000  Step:         214  Bead:       0 positions{angstrom}  cell{atomic_unit}
       O -2.33469e+00 -6.48684e-01 -8.66481e-01
       H -1.92197e+00 -2.99034e-01 -1.67147e+00
2
# CELL(abcABC):  188.97261   188.97261   188.97261    90.00000    90.00000    90.00000  Step:         216  Bead:       0 positions{angstrom}  cell{atomic_unit}
       O -2.33421e+00 -6.50195e-01 -8.64581e-01
       H -1.91371e+00 -2.91281e-01 -1.66779e+00
2
# CELL(abcABC):  188.97261   188.97261   188.97261    90.00000    90.00000    90.00000  Step:         218  Bead:       0 positions{angstrom}  cell{atomic_unit}
       O -2.33366e+00 -6.51650e-01 -8.62807e-01
       H -1.90649e+00 -2.84416e-01 -1.66213e+00
2
# CELL(abcABC):  188.97261   188.97261   188.97261    90.00000    90.00000    90.00000  Step:         220  Bead:       0 positions{angstrom}  cell{atomic_unit}
       O -2.33301e+00 -6.53019e-01 -8.61219e-01
       H -1.90085e+00 -2.78914e-01 -1.65351e+00
2
# CELL(abcABC):  188.97261   188.97261   188.97261    90.00000    90.00000    90.00000  Step:         222  Bead:       0 positions{angstrom}  cell{atomic_unit}
       O -2.33227e+00 -6.54310e-01 -8.59796e-01
       H -1.89664e+00 -2.74645e-01 -1.64227e+00
2
# CELL(abcABC):  188.97261   188.97261   188.97261    90.00000    90.00000    90.00000  Step:         224  Bead:       0 positions{angstrom}  cell{atomic_unit}
       O -2.33150e+00 -6.55568e-01 -8.58443e-01
       H -1.89304e+00 -2.70908e-01 -1.62993e+00
2
# CELL(abcABC):  188.97261   188.97261   188.97261    90.00000    90.00000    90.00000  Step:         226  Bead:       0 positions{angstrom}  cell{atomic_unit}
       O -2.33075e+00 -6.56855e-01 -8.57032e-01
       H -1.88892e+00 -2.66715e-01 -1.61849e+00
2
# CELL(abcABC):  188.97261   188.97261   188.97261    90.00000    90.00000    90.00000  Step:         228  Bead:       0 positions{angstrom}  cell{atomic_unit}
       O -2.33010e+00 -6.58220e-01 -8.55467e-01
       H -1.88338e+00 -2.61266e-01 -1.60951e+00
2
# CELL(abcABC):  188.97261   188.97261   188.97261    90.00000    90.00000    90.00000  Step:         230  Bead:       0 positions{angstrom}  cell{atomic_unit}
       O -2.32955e+00 -6.59677e-01 -8.53731e-01
       H -1.87622e+00 -2.54383e-01 -1.60325e+00
2