
Running Job 1 of 1 Tutorial_2_workdir/logs/energies/wb97m-v/aug-cc-pVTZ/C1H3N1H2C1H3N1H2/7f5f1d13/2025-07-13-04:37:23.306081.in
qchem Tutorial_2_workdir/logs/energies/wb97m-v/aug-cc-pVTZ/C1H3N1H2C1H3N1H2/7f5f1d13/2025-07-13-04:37:23.306081.in_15123.0 /data/lab/qcscratch/qchem15123/ 0
/data/software/repo/qchem/5.4/exe/qcprog.exe_s Tutorial_2_workdir/logs/energies/wb97m-v/aug-cc-pVTZ/C1H3N1H2C1H3N1H2/7f5f1d13/2025-07-13-04:37:23.306081.in_15123.0 /data/lab/qcscratch/qchem15123/
                  Welcome to Q-Chem
     A Quantum Leap Into The Future Of Chemistry


 Q-Chem 5.4, Q-Chem, Inc., Pleasanton, CA (2021)

 License issued to: SRG Francesco Paesani, University of California, San Diego

 E. Epifanovsky,  A. T. B. Gilbert,  Xintian Feng,  Joonho Lee,  Yuezhi Mao,  
 N. Mardirossian,  P. Pokhilko,  A. White,  M. Wormit,  M. P. Coons,  
 A. L. Dempwolff,  Zhengting Gan,  D. Hait,  P. R. Horn,  L. D. Jacobson,  
 I. Kaliman,  J. Kussmann,  A. W. Lange,  Ka Un Lao,  D. S. Levine,  Jie Liu,  
 S. C. McKenzie,  A. F. Morrison,  K. Nanda,  F. Plasser,  D. R. Rehn,  
 M. L. Vidal,  Zhi-Qiang You,  Ying Zhu,  B. Alam,  B. Albrecht,  
 A. Aldossary,  E. Alguire,  J. H. Andersen,  D. Barton,  K. Begam,  A. Behn,  
 Y. A. Bernard,  E. J. Berquist,  H. Burton,  A. Carreras,  K. Carter-Fenk,  
 R. Chakraborty,  A. D. Chien,  K. D. Closser,  V. Cofer-Shabica,  
 S. Dasgupta,  Jia Deng,  M. de Wergifosse,  M. Diedenhofen,  Hainam Do,  
 S. Ehlert,  Po-Tung Fang,  S. Fatehi,  Qingguo Feng,  J. Gayvert,  
 Qinghui Ge,  G. Gidofalvi,  M. Goldey,  J. Gomes,  C. Gonzalez-Espinoza,  
 S. Gulania,  A. Gunina,  M. W. D. Hanson-Heine,  P. H. P. Harbach,  
 A. W. Hauser,  M. F. Herbst,  M. Hernandez Vera,  M. Hodecker,  
 Z. C. Holden,  S. Houck,  Xunkun Huang,  Kerwin Hui,  B. C. Huynh,  
 M. Ivanov,  Hyunjun Ji,  Hanjie Jiang,  B. Kaduk,  S. Kaehler,  
 K. Khistyaev,  Jaehoon Kim,  P. Klunzinger,  Z. Koczor-Benda,  
 Joong Hoon Koh,  D. Kosenkov,  L. Koulias,  T. Kowalczyk,  C. M. Krauter,  
 K. Kue,  A. Kunitsa,  T. Kus,  A. Landau,  K. V. Lawler,  D. Lefrancois,  
 S. Lehtola,  Rain Li,  Yi-Pei Li,  Jiashu Liang,  M. Liebenthal,  
 Hung-Hsuan Lin,  You-Sheng Lin,  Fenglai Liu,  Kuan-Yu Liu,  
 M. Loipersberger,  A. Luenser,  A. Manjanath,  P. Manohar,  E. Mansoor,  
 S. F. Manzer,  Shan-Ping Mao,  A. V. Marenich,  T. Markovich,  S. Mason,  
 S. A. Maurer,  P. F. McLaughlin,  M. F. S. J. Menger,  J.-M. Mewes,  
 S. A. Mewes,  P. Morgante,  J. W. Mullinax,  T. S. Nguyen-Beck,  
 K. J. Oosterbaan,  G. Paran,  Alexander C. Paul,  Suranjan K. Paul,  
 F. Pavosevic,  Zheng Pei,  S. Prager,  E. I. Proynov,  E. Ramos,  B. Rana,  
 A. E. Rask,  A. Rettig,  R. M. Richard,  F. Rob,  E. Rossomme,  T. Scheele,  
 M. Scheurer,  M. Schneider,  N. Sergueev,  S. M. Sharada,  W. Skomorowski,  
 D. W. Small,  C. J. Stein,  Yu-Chuan Su,  E. J. Sundstrom,  Zhen Tao,  
 J. Thirman,  T. Tsuchimochi,  N. M. Tubman,  S. P. Veccham,  O. Vydrov,  
 J. Wenzel,  J. Witte,  A. Yamada,  Kun Yao,  S. Yeganeh,  S. R. Yost,  
 A. Zech,  Igor Ying Zhang,  Xing Zhang,  Yu Zhang,  D. Zuev,  
 A. Aspuru-Guzik,  A. T. Bell,  N. A. Besley,  K. B. Bravaya,  B. R. Brooks,  
 D. Casanova,  Jeng-Da Chai,  S. Coriani,  C. J. Cramer,  
 A. E. DePrince, III,  R. A. DiStasio Jr.,  A. Dreuw,  B. D. Dunietz,  
 T. R. Furlani,  W. A. Goddard III,  S. Grimme,  S. Hammes-Schiffer,  
 T. Head-Gordon,  W. J. Hehre,  Chao-Ping Hsu,  T.-C. Jagau,  Yousung Jung,  
 A. Klamt,  Jing Kong,  D. S. Lambrecht,  WanZhen Liang,  N. J. Mayhall,  
 C. W. McCurdy,  J. B. Neaton,  C. Ochsenfeld,  J. A. Parkhill,  R. Peverati,  
 V. A. Rassolov,  Yihan Shao,  L. V. Slipchenko,  T. Stauch,  R. P. Steele,  
 J. E. Subotnik,  A. J. W. Thom,  A. Tkatchenko,  D. G. Truhlar,  
 T. Van Voorhis,  T. A. Wesolowski,  K. B. Whaley,  H. L. Woodcock III,  
 P. M. Zimmerman,  S. Faraji,  P. M. W. Gill,  M. Head-Gordon,  
 J. M. Herbert,  A. I. Krylov

 Contributors to earlier versions of Q-Chem not listed above: 
 R. D. Adamson,  B. Austin,  R. Baer,  J. Baker,  G. J. O. Beran,  
 K. Brandhorst,  S. T. Brown,  E. F. C. Byrd,  A. K. Chakraborty,  
 G. K. L. Chan,  Chun-Min Chang,  Yunqing Chen,  C.-L. Cheng,  
 Siu Hung Chien,  D. M. Chipman,  D. L. Crittenden,  H. Dachsel,  
 R. J. Doerksen,  A. D. Dutoi,  R. G. Edgar,  J. Fosso-Tande,  
 L. Fusti-Molnar,  D. Ghosh,  A. Ghysels,  A. Golubeva-Zadorozhnaya,  
 J. Gonthier,  M. S. Gordon,  S. R. Gwaltney,  G. Hawkins,  J. E. Herr,  
 A. Heyden,  S. Hirata,  E. G. Hohenstein,  G. Kedziora,  F. J. Keil,  
 C. Kelley,  Jihan Kim,  R. A. King,  R. Z. Khaliullin,  P. P. Korambath,  
 W. Kurlancheek,  A. Laurent,  A. M. Lee,  M. S. Lee,  S. V. Levchenko,  
 Ching Yeh Lin,  D. Liotard,  E. Livshits,  R. C. Lochan,  I. Lotan,  
 L. A. Martinez-Martinez,  P. E. Maslen,  N. Nair,  D. P. O'Neill,  
 D. Neuhauser,  E. Neuscamman,  C. M. Oana,  R. Olivares-Amaya,  R. Olson,  
 T. M. Perrine,  B. Peters,  P. A. Pieniazek,  A. Prociuk,  Y. M. Rhee,  
 J. Ritchie,  M. A. Rohrdanz,  E. Rosta,  N. J. Russ,  H. F. Schaefer III,  
 M. W. Schmidt,  N. E. Schultz,  S. Sharma,  N. Shenvi,  C. D. Sherrill,  
 A. C. Simmonett,  A. Sodt,  T. Stein,  D. Stuck,  K. S. Thanthiriwatte,  
 V. Vanovschi,  L. Vogt,  Tao Wang,  A. Warshel,  M. A. Watson,  
 C. F. Williams,  Q. Wu,  X. Xu,  Jun Yang,  W. Zhang,  Yan Zhao

 Please cite Q-Chem as follows:
 Y. Shao et al., Mol. Phys. 113, 184-215 (2015)
 DOI: 10.1080/00268976.2014.952696

 Q-Chem 5.4.0 for Intel X86 EM64T Linux

 Parts of Q-Chem use Armadillo 9.800.1 (Horizon Scraper).
 http://arma.sourceforge.net/

 Q-Chem begins on Sun Jul 13 04:37:26 2025  

 Host: 
0

     Scratch files written to /data/lab/qcscratch/qchem15123//
 May1621 |scratch|qcdevops|jenkins|workspace|build_RNUM 7987   
 Processing $rem in /data/software/repo/qchem/5.4/config/preferences:
 Processing $rem in /home/ebullvul/.qchemrc:

 Checking the input file for inconsistencies... 	...done.

--------------------------------------------------------------
User input:
--------------------------------------------------------------
$molecule
0 1
C  -7.37534686285563e-01 -8.53434950327613e-03 -2.81906492485253e-02
H  -1.12236262328556e+00  1.00176999194672e+00 -1.59435260248525e-01
H  -1.12359629328556e+00 -6.26685286053276e-01 -8.45884129248525e-01
H  -1.14691032328556e+00 -3.91600228053276e-01  9.05480972751475e-01
N   7.17942904714437e-01  4.38022037467239e-02  7.38841188514747e-02
H   1.09098955671444e+00 -8.90050888053276e-01  1.97293805751475e-01
H   1.11368806671444e+00  3.99590818946724e-01 -7.88226187248525e-01
C   3.92624653137144e+01 -8.53434950327613e-03 -2.81906492485253e-02
H   3.88776373767144e+01  1.00176999194672e+00 -1.59435260248525e-01
H   3.88764037067144e+01 -6.26685286053276e-01 -8.45884129248525e-01
H   3.88530896767144e+01 -3.91600228053276e-01  9.05480972751475e-01
N   4.07179429047144e+01  4.38022037467239e-02  7.38841188514747e-02
H   4.10909895567144e+01 -8.90050888053276e-01  1.97293805751475e-01
H   4.11136880667144e+01  3.99590818946724e-01 -7.88226187248525e-01
$end

$rem
jobtype sp
method wb97m-v
basis aug-cc-pVTZ
GEOM_OPT_MAX_CYCLES 10000
MEM_TOTAL 32000
CM5 true
DFTVDW_JOBNUMBER 1
DFTVDW_METHOD 1
DFTVDW_PRINT 2
MM_CHARGES true
symmetry false
sym_ignore true
no_reorient true
$end
--------------------------------------------------------------
 ----------------------------------------------------------------
             Standard Nuclear Orientation (Angstroms)
    I     Atom           X                Y                Z
 ----------------------------------------------------------------
    1      C      -0.7375346863    -0.0085343495    -0.0281906492
    2      H      -1.1223626233     1.0017699919    -0.1594352602
    3      H      -1.1235962933    -0.6266852861    -0.8458841292
    4      H      -1.1469103233    -0.3916002281     0.9054809728
    5      N       0.7179429047     0.0438022037     0.0738841189
    6      H       1.0909895567    -0.8900508881     0.1972938058
    7      H       1.1136880667     0.3995908189    -0.7882261872
    8      C      39.2624653137    -0.0085343495    -0.0281906492
    9      H      38.8776373767     1.0017699919    -0.1594352602
   10      H      38.8764037067    -0.6266852861    -0.8458841292
   11      H      38.8530896767    -0.3916002281     0.9054809728
   12      N      40.7179429047     0.0438022037     0.0738841189
   13      H      41.0909895567    -0.8900508881     0.1972938058
   14      H      41.1136880667     0.3995908189    -0.7882261872
 ----------------------------------------------------------------
 Nuclear Repulsion Energy =          88.47338039 hartrees
 There are       18 alpha and       18 beta electrons
 Requested basis set is aug-cc-pVTZ
 There are 146 shells and 414 basis functions

 Total QAlloc Memory Limit  32000 MB
 Mega-Array Size       188 MB
 MEM_STATIC part       192 MB

                       Distance Matrix (Angstroms)
             C (  1)   H (  2)   H (  3)   H (  4)   N (  5)   H (  6)
   H (  2)  1.089051
   H (  3)  1.095343  1.767224
   H (  4)  1.089069  1.753890  1.767226
   N (  5)  1.459991  2.087789  2.164900  2.087775
   H (  6)  2.042404  2.933457  2.462107  2.399620  1.013151
   H (  7)  2.042363  2.399567  2.462115  2.933416  1.013131  1.623250
   C (  8) 40.000000 40.397677 40.399068 40.421976 38.544693 38.182319
   H (  9) 39.628270 40.000000 40.040252 40.062950 38.172430 37.835658
   H ( 10) 39.627198 40.037787 40.000000 40.062304 38.175433 37.800729
   H ( 11) 39.603485 40.013902 40.015721 40.000000 38.146698 37.772029
   N ( 12) 41.455636 41.851921 41.857018 41.875375 40.000000 39.638148
   H ( 13) 41.838420 42.257228 42.228294 42.246777 40.384034 40.000000
   H ( 14) 41.860113 42.245023 42.249790 42.301924 40.406510 40.055597
             H (  7)   C (  8)   H (  9)   H ( 10)   H ( 11)   N ( 12)
   C (  8) 38.158530
   H (  9) 37.773984  1.089051
   H ( 10) 37.776703  1.095343  1.767224
   H ( 11) 37.785673  1.089069  1.753890  1.767226
   N ( 12) 39.615235  1.459991  2.087789  2.164900  2.087775
   H ( 13) 40.010237  2.042404  2.933457  2.462107  2.399620  1.013151
   H ( 14) 40.000000  2.042363  2.399567  2.462115  2.933416  1.013131
             H ( 13)
   H ( 14)  1.623250
 
 A cutoff of  1.0D-08 yielded   5386 shell pairs
 There are     43618 function pairs (     56374 Cartesian)
 Smallest overlap matrix eigenvalue = 4.01E-05

 Q-Chem warning in module stvman/mkSTV.C, line 323:

 Overlap eigenvalue is smaller than square root of threshold
 Use THRESH >= 12 to get rid of this warning


 Scale SEOQF with 1.000000e-03/1.000000e-01/1.000000e-01

 Standard Electronic Orientation quadrupole field applied
 Nucleus-field energy     =     0.0000000102 hartrees
 ================ Generating on-the-fly Promolecule Density  ================
Attempting to make child job directory: /data/lab/qcscratch/qchem15123//Frg1/
Attempting to make child job directory: /data/lab/qcscratch/qchem15123//Frg2/
Attempting to make child job directory: /data/lab/qcscratch/qchem15123//Frg3/
Creating input file /data/lab/qcscratch/qchem15123/Frg1.input
using default PutDataFrgm: nothing
calling putenv with: QCSCRATCH=/data/lab/qcscratch/qchem15123/ 
Spawning Job For Fragment 0
Done Job For Fragment 0
calling putenv with: QCSCRATCH=/data/lab/qcscratch 
calling putenv with: QCTHREADS=16 
Creating input file /data/lab/qcscratch/qchem15123/Frg2.input
using default PutDataFrgm: nothing
calling putenv with: QCSCRATCH=/data/lab/qcscratch/qchem15123/ 
Spawning Job For Fragment 1
Done Job For Fragment 1
calling putenv with: QCSCRATCH=/data/lab/qcscratch 
calling putenv with: QCTHREADS=16 
Creating input file /data/lab/qcscratch/qchem15123/Frg3.input
using default PutDataFrgm: nothing
calling putenv with: QCSCRATCH=/data/lab/qcscratch/qchem15123/ 
Spawning Job For Fragment 2
Done Job For Fragment 2
calling putenv with: QCSCRATCH=/data/lab/qcscratch 
calling putenv with: QCTHREADS=16 
 Time for running child jobs:  CPU 0.18 s  wall 27.21 s
 ============= Method Specific Promolecule Density Constructed =============
 Guess from superposition of atomic densities
 Warning:  Energy on first SCF cycle will be non-variational
 SAD guess density has 36.000000 electrons
vdw inputs: VDWJob VDWMethod K    alpha1 alph2  natomMol delta[0] 
              1      1       800   83    155      0      100 
 Long-range K will be added via erf
 Coulomb attenuation parameter = 0.3 bohr**(-1)
 A restricted hybrid HF-DFT SCF calculation will be
 performed using Pulay DIIS extrapolation
 Exchange:     0.1500 Hartree-Fock + 1.0000 wB97M-V + LR-HF
 Correlation:  1.0000 VDW_BR89 + 1.0000 wB97M-V
 Using SG-2 standard quadrature grid
 Nonlocal Correlation:  VV10 with C = 0.0100 and b = 6.00 and scale = 1.00000
 Grid used for NLC:  SG-1 standard quadrature
 SCF converges when DIIS error is below 1.0E-05
 using 16 threads for integral computing
 -------------------------------------------------------
 OpenMP Integral computing Module                
 Release: version 1.0, May 2013, Q-Chem Inc. Pittsburgh 
 -------------------------------------------------------
CFUNC_VDW_BR89 not done here.
 ---------------------------------------
  Cycle       Energy         DIIS Error
 ---------------------------------------
    1    -173.0941016005      2.07E-02
 Inaccurate integrated density:
   Number of electrons =    36
   Numerical integral  =    35.980883239478
   Relative error      =    -0.0531021126 %
    2    -190.0490885117      1.58E-02
    3    -191.5268988205      5.13E-03
    4    -191.5228825692      3.46E-03
    5    -191.6721591158      3.84E-04
    6    -191.6747941524      9.21E-05
    7    -191.6749559446      1.19E-05
    8    -191.6749603160      3.14E-06 Convergence criterion met
 ---------------------------------------
ex ec : -18.566852 -0.907188 


    Starting XDM module in DFT 

    Atom  vol   volFree  d2xBR     d2xOri   d2xXX  
    0   28.56   36.73    4.519     0.000    0.000  
    1    5.46    9.19    1.982     0.000    0.000  
    2    5.47    9.19    2.050     0.000    0.000  
    3    5.46    9.19    1.982     0.000    0.000  
    4   24.55   27.63    4.785     0.000    0.000  
    5    5.67    9.19    1.947     0.000    0.000  
    6    5.67    9.19    1.947     0.000    0.000  
    7   28.56   36.73    4.519     0.000    0.000  
    8    5.46    9.19    1.982     0.000    0.000  
    9    5.47    9.19    2.050     0.000    0.000  
   10    5.46    9.19    1.982     0.000    0.000  
   11   24.55   27.63    4.785     0.000    0.000  
   12    5.67    9.19    1.947     0.000    0.000  
   13    5.67    9.19    1.947     0.000    0.000  

   D2X   (i,j)   C6     C8       C10   RTT/2 Rc/2  Rvdw/2 Rij  Eij_C6   Eij_HO   Eij_TT
   VDWBR (0,1)   7.273 194.857  6093.2 1.957 1.424 1.957 1.09 -0.22132 -0.04930 -0.00000 
   VDWBR (0,2)   7.381 195.061  5953.7 1.946 1.411 1.946 1.10 -0.22130 -0.05164 -0.00000 
   VDWBR (0,3)   7.273 194.874  6094.5 1.957 1.424 1.957 1.09 -0.22132 -0.04929 -0.00000 
   VDWBR (0,4)  17.800 571.167 18816.3 2.027 1.509 2.027 1.46 -0.42449 -0.10220 -0.00000 
   VDWBR (0,5)   7.392 206.461  6809.0 1.986 1.458 1.986 2.04 -0.19178 -0.04586 -0.00000 
   VDWBR (0,6)   7.390 206.409  6808.4 1.986 1.459 1.986 2.04 -0.19178 -0.04584 -0.00000 
   VDWBR (0,7)  20.871 752.461 27882.8 2.103 1.600 2.103 40.00 -0.00000 -0.00000 -0.00000 
   VDWBR (0,8)   7.273 194.857  6093.1 1.957 1.424 1.957 39.63 -0.00000 -0.00000 -0.00000 
   VDWBR (0,9)   7.382 195.062  5953.7 1.946 1.411 1.946 39.63 -0.00000 -0.00000 -0.00000 
   VDWBR (0,10)   7.273 194.874  6094.5 1.957 1.424 1.957 39.60 -0.00000 -0.00000 -0.00000 
   VDWBR (0,11)  17.800 571.167 18816.3 2.027 1.509 2.027 41.46 -0.00000 -0.00000 -0.00000 
   VDWBR (0,12)   7.392 206.461  6809.0 1.986 1.458 1.986 41.84 -0.00000 -0.00000 -0.00000 
   VDWBR (0,13)   7.390 206.409  6808.4 1.986 1.459 1.986 41.86 -0.00000 -0.00000 -0.00000 
   VDWBR (1,2)   2.694  46.245  1279.3 1.805 1.241 1.805 1.77 -0.05053 -0.02639 -0.00000 
   VDWBR (1,3)   2.646  46.393  1322.7 1.818 1.257 1.818 1.75 -0.05058 -0.02492 -0.00000 
   VDWBR (1,4)   6.461 147.488  4054.1 1.875 1.325 1.875 2.09 -0.21085 -0.05347 -0.00000 
   VDWBR (1,5)   2.674  49.915  1506.3 1.850 1.295 1.850 2.93 -0.02757 -0.01932 -0.00000 
   VDWBR (1,6)   2.673  49.902  1506.3 1.850 1.295 1.850 2.40 -0.04140 -0.02201 -0.00000 
   VDWBR (1,7)   7.273 194.857  6093.2 1.957 1.424 1.957 40.40 -0.00000 -0.00000 -0.00000 
   VDWBR (1,8)   2.646  46.388  1322.3 1.818 1.257 1.818 40.00 -0.00000 -0.00000 -0.00000 
   VDWBR (1,9)   2.694  46.245  1279.3 1.805 1.241 1.805 40.04 -0.00000 -0.00000 -0.00000 
   VDWBR (1,10)   2.646  46.393  1322.7 1.818 1.257 1.818 40.01 -0.00000 -0.00000 -0.00000 
   VDWBR (1,11)   6.461 147.488  4054.1 1.875 1.325 1.875 41.85 -0.00000 -0.00000 -0.00000 
   VDWBR (1,12)   2.674  49.915  1506.3 1.850 1.295 1.850 42.26 -0.00000 -0.00000 -0.00000 
   VDWBR (1,13)   2.673  49.902  1506.3 1.850 1.295 1.850 42.25 -0.00000 -0.00000 -0.00000 
   VDWBR (2,3)   2.694  46.250  1279.7 1.805 1.241 1.805 1.77 -0.05053 -0.02638 -0.00000 
   VDWBR (2,4)   6.577 147.733  3939.6 1.862 1.310 1.862 2.16 -0.20209 -0.05617 -0.00000 
   VDWBR (2,5)   2.721  49.804  1463.2 1.837 1.280 1.837 2.46 -0.04014 -0.02297 -0.00000 
   VDWBR (2,6)   2.720  49.790  1463.2 1.838 1.280 1.838 2.46 -0.04014 -0.02296 -0.00000 
   VDWBR (2,7)   7.381 195.061  5953.7 1.946 1.411 1.946 40.40 -0.00000 -0.00000 -0.00000 
   VDWBR (2,8)   2.694  46.244  1279.3 1.805 1.241 1.805 40.04 -0.00000 -0.00000 -0.00000 
   VDWBR (2,9)   2.744  46.092  1235.3 1.791 1.224 1.791 40.00 -0.00000 -0.00000 -0.00000 
   VDWBR (2,10)   2.694  46.250  1279.7 1.805 1.241 1.805 40.02 -0.00000 -0.00000 -0.00000 
   VDWBR (2,11)   6.577 147.733  3939.6 1.862 1.310 1.862 41.86 -0.00000 -0.00000 -0.00000 
   VDWBR (2,12)   2.721  49.804  1463.2 1.837 1.280 1.837 42.23 -0.00000 -0.00000 -0.00000 
   VDWBR (2,13)   2.720  49.790  1463.2 1.838 1.280 1.838 42.25 -0.00000 -0.00000 -0.00000 
   VDWBR (3,4)   6.461 147.501  4055.1 1.875 1.325 1.875 2.09 -0.21085 -0.05346 -0.00000 
   VDWBR (3,5)   2.674  49.921  1506.7 1.850 1.295 1.850 2.40 -0.04140 -0.02201 -0.00000 
   VDWBR (3,6)   2.673  49.907  1506.7 1.850 1.295 1.850 2.93 -0.02757 -0.01931 -0.00000 
   VDWBR (3,7)   7.273 194.874  6094.5 1.957 1.424 1.957 40.42 -0.00000 -0.00000 -0.00000 
   VDWBR (3,8)   2.646  46.393  1322.7 1.818 1.257 1.818 40.06 -0.00000 -0.00000 -0.00000 
   VDWBR (3,9)   2.694  46.250  1279.7 1.805 1.241 1.805 40.06 -0.00000 -0.00000 -0.00000 
   VDWBR (3,10)   2.646  46.398  1323.1 1.819 1.257 1.819 40.00 -0.00000 -0.00000 -0.00000 
   VDWBR (3,11)   6.461 147.501  4055.1 1.875 1.325 1.875 41.88 -0.00000 -0.00000 -0.00000 
   VDWBR (3,12)   2.674  49.921  1506.7 1.850 1.295 1.850 42.25 -0.00000 -0.00000 -0.00000 
   VDWBR (3,13)   2.673  49.907  1506.7 1.850 1.295 1.850 42.30 -0.00000 -0.00000 -0.00000 
   VDWBR (4,5)   6.530 156.506  4586.9 1.907 1.363 1.907 1.01 -0.26147 -0.05041 -0.00000 
   VDWBR (4,6)   6.529 156.466  4586.7 1.907 1.363 1.907 1.01 -0.26147 -0.05039 -0.00000 
   VDWBR (4,7)  17.800 571.167 18816.3 2.027 1.509 2.027 38.54 -0.00000 -0.00000 -0.00000 
   VDWBR (4,8)   6.461 147.488  4054.1 1.875 1.325 1.875 38.17 -0.00000 -0.00000 -0.00000 
   VDWBR (4,9)   6.577 147.734  3939.6 1.862 1.310 1.862 38.18 -0.00000 -0.00000 -0.00000 
   VDWBR (4,10)   6.461 147.501  4055.1 1.875 1.325 1.875 38.15 -0.00000 -0.00000 -0.00000 
   VDWBR (4,11)  15.778 443.733 12742.1 1.946 1.411 1.946 40.00 -0.00000 -0.00000 -0.00000 
   VDWBR (4,12)   6.530 156.506  4586.9 1.907 1.363 1.907 40.38 -0.00000 -0.00000 -0.00000 
   VDWBR (4,13)   6.529 156.466  4586.7 1.907 1.363 1.907 40.41 -0.00000 -0.00000 -0.00000 
   VDWBR (5,6)   2.703  53.540  1701.9 1.880 1.332 1.880 1.62 -0.05138 -0.02150 -0.00000 
   VDWBR (5,7)   7.392 206.461  6809.0 1.986 1.458 1.986 38.18 -0.00000 -0.00000 -0.00000 
   VDWBR (5,8)   2.674  49.915  1506.3 1.850 1.295 1.850 37.84 -0.00000 -0.00000 -0.00000 
   VDWBR (5,9)   2.721  49.804  1463.2 1.837 1.280 1.837 37.80 -0.00000 -0.00000 -0.00000 
   VDWBR (5,10)   2.674  49.921  1506.7 1.850 1.295 1.850 37.77 -0.00000 -0.00000 -0.00000 
   VDWBR (5,11)   6.530 156.506  4586.9 1.907 1.363 1.907 39.64 -0.00000 -0.00000 -0.00000 
   VDWBR (5,12)   2.704  53.554  1701.9 1.880 1.331 1.880 40.00 -0.00000 -0.00000 -0.00000 
   VDWBR (5,13)   2.703  53.540  1701.9 1.880 1.332 1.880 40.06 -0.00000 -0.00000 -0.00000 
   VDWBR (6,7)   7.390 206.409  6808.4 1.986 1.459 1.986 38.16 -0.00000 -0.00000 -0.00000 
   VDWBR (6,8)   2.673  49.902  1506.3 1.850 1.295 1.850 37.77 -0.00000 -0.00000 -0.00000 
   VDWBR (6,9)   2.720  49.791  1463.2 1.838 1.280 1.838 37.78 -0.00000 -0.00000 -0.00000 
   VDWBR (6,10)   2.673  49.907  1506.7 1.850 1.295 1.850 37.79 -0.00000 -0.00000 -0.00000 
   VDWBR (6,11)   6.529 156.466  4586.7 1.907 1.363 1.907 39.62 -0.00000 -0.00000 -0.00000 
   VDWBR (6,12)   2.703  53.540  1701.9 1.880 1.332 1.880 40.01 -0.00000 -0.00000 -0.00000 
   VDWBR (6,13)   2.703  53.526  1701.9 1.880 1.332 1.880 40.00 -0.00000 -0.00000 -0.00000 
   VDWBR (7,8)   7.273 194.857  6093.1 1.957 1.424 1.957 1.09 -0.22132 -0.04930 -0.00000 
   VDWBR (7,9)   7.382 195.062  5953.7 1.946 1.411 1.946 1.10 -0.22130 -0.05164 -0.00000 
   VDWBR (7,10)   7.273 194.874  6094.5 1.957 1.424 1.957 1.09 -0.22132 -0.04929 -0.00000 
   VDWBR (7,11)  17.800 571.167 18816.3 2.027 1.509 2.027 1.46 -0.42449 -0.10220 -0.00000 
   VDWBR (7,12)   7.392 206.461  6809.0 1.986 1.458 1.986 2.04 -0.19178 -0.04586 -0.00000 
   VDWBR (7,13)   7.390 206.409  6808.4 1.986 1.459 1.986 2.04 -0.19178 -0.04584 -0.00000 
   VDWBR (8,9)   2.694  46.245  1279.3 1.805 1.241 1.805 1.77 -0.05053 -0.02639 -0.00000 
   VDWBR (8,10)   2.646  46.393  1322.7 1.818 1.257 1.818 1.75 -0.05058 -0.02492 -0.00000 
   VDWBR (8,11)   6.461 147.488  4054.1 1.875 1.325 1.875 2.09 -0.21085 -0.05347 -0.00000 
   VDWBR (8,12)   2.674  49.915  1506.3 1.850 1.295 1.850 2.93 -0.02757 -0.01932 -0.00000 
   VDWBR (8,13)   2.673  49.902  1506.3 1.850 1.295 1.850 2.40 -0.04140 -0.02201 -0.00000 
   VDWBR (9,10)   2.694  46.250  1279.7 1.805 1.241 1.805 1.77 -0.05053 -0.02638 -0.00000 
   VDWBR (9,11)   6.577 147.734  3939.6 1.862 1.310 1.862 2.16 -0.20209 -0.05617 -0.00000 
   VDWBR (9,12)   2.721  49.804  1463.2 1.837 1.280 1.837 2.46 -0.04014 -0.02297 -0.00000 
   VDWBR (9,13)   2.720  49.791  1463.2 1.838 1.280 1.838 2.46 -0.04014 -0.02296 -0.00000 
   VDWBR (10,11)   6.461 147.501  4055.1 1.875 1.325 1.875 2.09 -0.21085 -0.05346 -0.00000 
   VDWBR (10,12)   2.674  49.921  1506.7 1.850 1.295 1.850 2.40 -0.04140 -0.02201 -0.00000 
   VDWBR (10,13)   2.673  49.907  1506.7 1.850 1.295 1.850 2.93 -0.02757 -0.01931 -0.00000 
   VDWBR (11,12)   6.530 156.506  4586.9 1.907 1.363 1.907 1.01 -0.26147 -0.05041 -0.00000 
   VDWBR (11,13)   6.529 156.466  4586.7 1.907 1.363 1.907 1.01 -0.26147 -0.05039 -0.00000 
   VDWBR (12,13)   2.703  53.540  1701.9 1.880 1.332 1.880 1.62 -0.05138 -0.02150 -0.00000 

   VDWBR = -0.0096890137 h [ C6: -6.07995  HO: -1.67161  TT: -0.00001 kcal/mol]
   Evdw(C6) = -0.0096890137 Hartree  =  -6.0799481271 KCal/mol
   VDWBR  d1E(0,xyz) = -0.000137   0.000014   0.000015 
   VDWBR  d1E(1,xyz) = -0.000124   0.000079  -0.000011 
   VDWBR  d1E(2,xyz) = -0.000129  -0.000048  -0.000066 
   VDWBR  d1E(3,xyz) = -0.000126  -0.000028   0.000071 
   VDWBR  d1E(4,xyz) =  0.000292   0.000012   0.000022 
   VDWBR  d1E(5,xyz) =  0.000112  -0.000056   0.000016 
   VDWBR  d1E(6,xyz) =  0.000113   0.000027  -0.000048 
   VDWBR  d1E(7,xyz) = -0.000137   0.000014   0.000015 
   VDWBR  d1E(8,xyz) = -0.000124   0.000079  -0.000011 
   VDWBR  d1E(9,xyz) = -0.000129  -0.000048  -0.000066 
   VDWBR  d1E(10,xyz) = -0.000126  -0.000028   0.000071 
   VDWBR  d1E(11,xyz) =  0.000292   0.000012   0.000022 
   VDWBR  d1E(12,xyz) =  0.000112  -0.000056   0.000016 
   VDWBR  d1E(13,xyz) =  0.000113   0.000027  -0.000048 

xdm vdw energy: -0.009689 
ex ec final with vdw: -18.566852 -0.916878 
    8    -191.6846493297      3.14E-06 -- (with XDM)

 SCF time:  CPU 319.18 s  wall 101.00 s
 SCF   energy in the final basis set = -191.68464933
 Total energy in the final basis set = -191.68464933
 
 --------------------------------------------------------------
 
                    Orbital Energies (a.u.)
 --------------------------------------------------------------
 
 Alpha MOs
 -- Occupied --
-14.4839 -14.4839 -10.3549 -10.3548  -1.0002  -1.0002  -0.7768  -0.7768
 -0.5973  -0.5973  -0.5449  -0.5448  -0.5051  -0.5051  -0.4665  -0.4664
 -0.3432  -0.3431
 -- Virtual --
  0.0122   0.0123   0.0282   0.0283   0.0312   0.0313   0.0371   0.0372
  0.0575   0.0575   0.0784   0.0785   0.1045   0.1046   0.1061   0.1061
  0.1172   0.1172   0.1184   0.1184   0.1315   0.1315   0.1412   0.1413
  0.1692   0.1693   0.1921   0.1921   0.2049   0.2049   0.2168   0.2168
  0.2359   0.2359   0.2451   0.2452   0.2534   0.2535   0.2587   0.2588
  0.2979   0.2980   0.3039   0.3039   0.3049   0.3049   0.3078   0.3079
  0.3335   0.3336   0.3469   0.3470   0.3558   0.3558   0.3606   0.3606
  0.3654   0.3654   0.3848   0.3848   0.3889   0.3890   0.3930   0.3930
  0.4064   0.4064   0.4102   0.4102   0.4240   0.4241   0.4479   0.4480
  0.4555   0.4556   0.4563   0.4563   0.4609   0.4609   0.5241   0.5241
  0.5470   0.5470   0.5559   0.5560   0.5781   0.5781   0.5911   0.5912
  0.6776   0.6777   0.6938   0.6938   0.7196   0.7196   0.7258   0.7258
  0.7433   0.7433   0.7542   0.7542   0.7719   0.7719   0.8124   0.8125
  0.8244   0.8244   0.8324   0.8324   0.8566   0.8567   0.8619   0.8619
  0.8708   0.8708   0.8846   0.8847   0.8963   0.8963   0.9010   0.9010
  0.9102   0.9103   0.9258   0.9258   0.9770   0.9770   0.9826   0.9826
  0.9934   0.9935   1.0101   1.0102   1.0116   1.0116   1.0273   1.0273
  1.0322   1.0322   1.0564   1.0564   1.0702   1.0702   1.1034   1.1034
  1.1136   1.1136   1.1418   1.1418   1.1664   1.1664   1.1725   1.1726
  1.1885   1.1885   1.2056   1.2057   1.2217   1.2217   1.2477   1.2477
  1.2700   1.2700   1.3014   1.3014   1.3457   1.3458   1.3522   1.3523
  1.3569   1.3570   1.3808   1.3809   1.4777   1.4778   1.4794   1.4795
  1.5107   1.5108   1.5212   1.5213   1.5241   1.5242   1.5444   1.5445
  1.5630   1.5630   1.5849   1.5850   1.6320   1.6321   1.6802   1.6803
  1.6951   1.6951   1.7788   1.7788   1.7971   1.7971   1.8364   1.8364
  1.8386   1.8387   1.8617   1.8618   1.8676   1.8676   1.8918   1.8918
  1.9227   1.9228   1.9408   1.9408   2.0385   2.0385   2.0528   2.0528
  2.0685   2.0685   2.0779   2.0779   2.1055   2.1055   2.1552   2.1552
  2.2377   2.2377   2.2553   2.2553   2.2705   2.2706   2.3199   2.3199
  2.3404   2.3405   2.3763   2.3763   2.3968   2.3969   2.5134   2.5135
  2.6811   2.6812   2.8663   2.8663   3.0966   3.0967   3.1064   3.1065
  3.1405   3.1405   3.3128   3.3128   3.3322   3.3323   3.3405   3.3405
  3.3459   3.3459   3.3742   3.3742   3.4213   3.4214   3.4786   3.4787
  3.5692   3.5693   3.6052   3.6052   3.6181   3.6181   3.6462   3.6462
  3.6814   3.6814   3.7382   3.7383   3.8094   3.8095   3.8308   3.8309
  3.8498   3.8498   3.8535   3.8535   3.9102   3.9102   3.9522   3.9522
  3.9526   3.9526   4.0248   4.0249   4.0279   4.0280   4.0424   4.0425
  4.1233   4.1233   4.1446   4.1446   4.1799   4.1799   4.2233   4.2233
  4.3010   4.3010   4.3293   4.3293   4.3639   4.3639   4.4208   4.4209
  4.4399   4.4399   4.4471   4.4472   4.5044   4.5044   4.5173   4.5173
  4.5912   4.5912   4.6221   4.6222   4.6955   4.6956   4.7171   4.7172
  4.7773   4.7773   4.7875   4.7876   4.8129   4.8130   4.8412   4.8412
  4.8619   4.8619   4.9119   4.9119   4.9193   4.9193   4.9579   4.9580
  5.0389   5.0389   5.1648   5.1648   5.2267   5.2268   5.2509   5.2510
  5.2594   5.2595   5.4458   5.4458   5.4714   5.4715   5.5131   5.5132
  5.5686   5.5687   5.6169   5.6169   5.6399   5.6400   5.7614   5.7614
  5.7694   5.7694   5.8267   5.8267   5.9121   5.9122   6.0467   6.0467
  6.1912   6.1913   6.1988   6.1988   6.3183   6.3183   6.3543   6.3543
  6.4259   6.4259   6.6279   6.6280   6.6974   6.6974   7.3850   7.3850
 16.2214  16.2214  17.3875  17.3875
 --------------------------------------------------------------
 
          Ground-State Mulliken Net Atomic Charges

     Atom                 Charge (a.u.)
  ----------------------------------------
      1 C                    -0.747351
      2 H                     0.325268
      3 H                     0.307341
      4 H                     0.323283
      5 N                    -0.432367
      6 H                     0.112316
      7 H                     0.111509
      8 C                    -0.747351
      9 H                     0.325268
     10 H                     0.307342
     11 H                     0.323282
     12 N                    -0.432367
     13 H                     0.112316
     14 H                     0.111509
  ----------------------------------------
  Sum of atomic charges =     0.000000

Performing Hirshfeld population analysis.

 Q-Chem warning in module anlman/hirshfeld.C, line 62:

 Hirshfeld: f basis functions and higher are not spherically averaged.


 Q-Chem warning in module anlman/hirshfeld.C, line 62:

 Hirshfeld: f basis functions and higher are not spherically averaged.


 Q-Chem warning in module anlman/hirshfeld.C, line 62:

 Hirshfeld: f basis functions and higher are not spherically averaged.


 Q-Chem warning in module anlman/hirshfeld.C, line 62:

 Hirshfeld: f basis functions and higher are not spherically averaged.


 Q-Chem warning in module anlman/hirshfeld.C, line 62:

 Hirshfeld: f basis functions and higher are not spherically averaged.


 Q-Chem warning in module anlman/hirshfeld.C, line 62:

 Hirshfeld: f basis functions and higher are not spherically averaged.


 Q-Chem warning in module anlman/hirshfeld.C, line 62:

 Hirshfeld: f basis functions and higher are not spherically averaged.


 Q-Chem warning in module anlman/hirshfeld.C, line 62:

 Hirshfeld: f basis functions and higher are not spherically averaged.

Hirshfeld: reading atomic densities from disk.
Hirshfeld: performing integration.
Hirshfeld: integration completed in 389.87 sec.

          Hirshfeld Atomic Charges         

     Atom                 Charge (a.u.)    
  ---------------------------------------- 
      1 C                    -0.058412
      2 H                     0.034733
      3 H                     0.020800
      4 H                     0.034761
      5 N                    -0.217301
      6 H                     0.093014
      7 H                     0.093120
      8 C                    -0.058412
      9 H                     0.034734
     10 H                     0.020799
     11 H                     0.034762
     12 N                    -0.217301
     13 H                     0.093014
     14 H                     0.093120
  ---------------------------------------- 
  Sum of atomic charges =     0.001431


          Charge Model 5         

     Atom                 Charge (a.u.)    
  ---------------------------------------- 
      1 C                    -0.154792
      2 H                     0.095379
      3 H                     0.078491
      4 H                     0.095406
      5 N                    -0.673241
      6 H                     0.279678
      7 H                     0.279794
      8 C                    -0.154792
      9 H                     0.095380
     10 H                     0.078490
     11 H                     0.095406
     12 N                    -0.673241
     13 H                     0.279678
     14 H                     0.279794
  ---------------------------------------- 
  Sum of atomic charges =     0.001431

The Stewart charges should reproduce the multipoles up to L =  2
with  7 L =  3 moments fitted by least-squares

 Q-Chem warning:

 Unable to obtain Stewart charges

   The traceless molecular multipole moments
 -----------------------------------------------------------------
                       Multipole Moments
 -----------------------------------------------------------------
    Charge (ESU x 10^10)
                           0.0000
    Dipole Moment (Debye)
      z                   -2.0951    x               -0.5870
      y                   -1.5902    Total            2.6949
    Quadrupole Moments (Debye-Ang)
      zz                  10.7559
      xz                 -78.1779    yz              -4.4623
      xx-yy              -21.2615    xy              59.2707
    Octopole Moments (Debye-Ang^2)
      zzz               2711.9953
      xzz                824.5959    yzz            839.0505
      xxz-yyz          -3501.2533    xyz            209.0615
      xxx-xyy          -1165.1713    xxy-yyy      -3250.9424
    Hexadecapole Moments (Debye-Ang^3)
      zzzz            -26309.3310
      xzzz            177782.2379    yzzz          5127.4373
      xxzz-yyzz        40645.2203    xyzz        -63505.6569
      xxxz-xyyz      -156803.9637    xxyz-yyyz   -13565.5381
      xxxx-xxyy+yyyy  -59421.4880    xxxy-xyyy   168014.7020
 -----------------------------------------------------------------
 -----------------------------------------------------------------
                    Cartesian Multipole Moments
 -----------------------------------------------------------------
    Charge (ESU x 10^10)
                 0.0000
    Dipole Moment (Debye)
         X      -0.5870      Y      -1.5902      Z      -2.0951
       Tot       2.6949
    Quadrupole Moments (Debye-Ang)
        XX     -52.2374     XY     -34.2199     YY     -27.6867
        XZ     -45.1360     YZ      -2.5763     ZZ     -29.2061
    Octopole Moments (Debye-Ang^2)
       XXX   -3126.4121    XXY   -1370.9156    XYY    -550.8580
       YYY      -0.5937    XXZ   -1808.2492    XYZ     -53.9795
       YYZ      -0.2098    XZZ    -582.6777    YZZ      -0.3364
       ZZZ      -0.6931
    Hexadecapole Moments (Debye-Ang^3)
      XXXX -212707.5241   XXXY  -56815.8659   XXYY  -22067.6923
      XYYY     -16.5298   YYYY     -51.1472   XXXZ  -74980.3792
      XXYZ   -2162.1851   XYYZ      -4.5820   YYYZ      -0.9876
      XXZZ  -23342.0926   XYZZ      -5.2016   YYZZ     -17.4265
      XZZZ     -19.0410   YZZZ      -0.9415   ZZZZ     -52.6172
 -----------------------------------------------------------------
 Total job time:  156.31s(wall), 722.77s(cpu) 
 Sun Jul 13 04:40:02 2025

        *************************************************************
        *                                                           *
        *  Thank you very much for using Q-Chem.  Have a nice day.  *
        *                                                           *
        *************************************************************


