ITEM: TIMESTEP
0
ITEM: NUMBER OF ATOMS
212
ITEM: BOX BOUNDS xy xz yz pp pp pp
-8.2834166000000007e+00 8.9138002000000007e+00 0.0000000000000000e+00
0.0000000000000000e+00 1.9386999100000001e+01 -8.2834166000000007e+00
0.0000000000000000e+00 1.7062815100000002e+01 0.0000000000000000e+00
ITEM: ATOMS id mol element type x y z
1 1 Zn1 1 -0.260404 0.546303 3.74276
2 1 Zn1 1 5.0325 9.1472 4.78864
3 1 Zn1 1 7.10335 5.39305 0.522937
4 1 Zn1 1 -2.33126 4.30045 8.00847
5 1 N2 2 -1.23386 8.59059 3.1504
6 1 N2 2 6.00595 1.10291 5.38101
7 1 N2 2 8.07681 3.74384 1.11531
8 1 N2 2 -3.30471 5.94965 7.4161
9 1 N2 2 6.40669 8.23356 3.50437
10 1 N2 2 -1.63459 1.45994 5.02704
11 1 N2 2 0.43626 3.38681 0.761336
12 1 N2 2 4.33583 6.30669 7.77007
13 1 N2 2 7.0941 6.85486 1.9124
14 1 N2 2 -2.322 2.83864 6.61901
15 1 N2 2 -0.25115 2.00811 2.3533
16 1 N2 2 5.02324 7.68539 6.1781
17 1 O5 5 1.09935 0.742057 5.22719
18 1 O5 5 3.67274 8.95144 3.30421
19 1 O5 5 1.60189 5.58881 7.56992
20 1 O5 5 3.17021 4.10469 0.96149
21 1 O5 5 3.23852 0.315743 5.774
22 1 O5 5 1.53357 9.37776 2.7574
23 1 O5 5 -0.537285 5.16249 7.02311
24 1 O5 5 5.30938 4.53101 1.5083
25 1 C3 3 -0.848651 7.75052 2.19032
26 1 C3 3 5.62074 1.94297 6.34108
27 1 C3 3 7.6916 2.90378 2.07538
28 1 C3 3 -2.91951 6.78972 6.45603
29 1 C3 3 6.0844 7.18878 2.74868
30 1 C3 3 -1.31231 2.50472 5.78272
31 1 C3 3 0.758542 2.34203 1.51702
32 1 C3 3 4.01355 7.35147 7.01439
33 1 C6 6 2.26632 0.303975 4.97503
34 1 C6 6 2.50578 9.38952 3.55638
35 1 C6 6 0.434923 5.15072 7.82208
36 1 C6 6 4.33717 4.54277 0.709327
37 1 H4 4 0.121541 7.80365 1.71084
38 1 H4 4 4.65055 1.88985 6.82057
39 1 H4 4 6.72141 2.95689 2.55487
40 1 H4 4 -1.94931 6.7366 5.97654
41 1 H4 4 5.13202 6.67611 2.79427
42 1 H4 4 -0.359926 3.01739 5.73713
43 1 H4 4 1.71093 1.82936 1.47143
44 1 H4 4 3.06116 7.86414 7.05998
45 1 Zn1 1 -4.40211 0.546303 12.2742
46 1 Zn1 1 0.890787 9.1472 13.32
47 1 Zn1 1 2.96164 5.39305 9.05434
48 1 Zn1 1 -6.47297 4.30045 16.5399
49 1 N2 2 -5.37557 8.59059 11.6818
50 1 N2 2 1.86424 1.10291 13.9124
51 1 N2 2 3.9351 3.74384 9.64671
52 1 N2 2 -7.44642 5.94965 15.9475
53 1 N2 2 2.26498 8.23356 12.0358
54 1 N2 2 -5.7763 1.45994 13.5584
55 1 N2 2 -3.70545 3.38681 9.29274
56 1 N2 2 0.194124 6.30669 16.3015
57 1 N2 2 2.95239 6.85486 10.4438
58 1 N2 2 -6.46371 2.83864 15.1504
59 1 N2 2 -4.39286 2.00811 10.8847
60 1 N2 2 0.881535 7.68539 14.7095
61 1 O5 5 -3.04236 0.742057 13.7586
62 1 O5 5 -0.468969 8.95144 11.8356
63 1 O5 5 -2.53982 5.58881 16.1013
64 1 O5 5 -0.971501 4.10469 9.4929
65 1 O5 5 -0.903185 0.315743 14.3054
66 1 O5 5 -2.60814 9.37776 11.2888
67 1 O5 5 -4.67899 5.16249 15.5545
68 1 O5 5 1.16767 4.53101 10.0397
69 1 C3 3 -4.99036 7.75052 10.7217
70 1 C3 3 1.47903 1.94297 14.8725
71 1 C3 3 3.54989 2.90378 10.6068
72 1 C3 3 -7.06121 6.78972 14.9874
73 1 C3 3 1.9427 7.18878 11.2801
74 1 C3 3 -5.45402 2.50472 14.3141
75 1 C3 3 -3.38317 2.34203 10.0484
76 1 C3 3 -0.128158 7.35147 15.5458
77 1 C6 6 -1.87539 0.303975 13.5064
78 1 C6 6 -1.63593 9.38952 12.0878
79 1 C6 6 -3.70679 5.15072 16.3535
80 1 C6 6 0.195461 4.54277 9.24073
81 1 H4 4 -4.02017 7.80365 10.2422
82 1 H4 4 0.508843 1.88985 15.352
83 1 H4 4 2.5797 2.95689 11.0863
84 1 H4 4 -6.09102 6.7366 14.5079
85 1 H4 4 0.99031 6.67611 11.3257
86 1 H4 4 -4.50163 3.01739 14.2685
87 1 H4 4 -2.43078 1.82936 10.0028
88 1 H4 4 -1.08054 7.86414 15.5914
89 1 Zn1 1 -0.260404 10.2398 3.74276
90 1 Zn1 1 5.0325 18.8407 4.78864
91 1 Zn1 1 7.10335 15.0866 0.522937
92 1 Zn1 1 -2.33126 13.9939 8.00847
93 1 N2 2 -1.23386 18.2841 3.1504
94 1 N2 2 6.00595 10.7964 5.38101
95 1 N2 2 8.07681 13.4373 1.11531
96 1 N2 2 -3.30471 15.6432 7.4161
97 1 N2 2 6.40669 17.9271 3.50437
98 1 N2 2 -1.63459 11.1534 5.02704
99 1 N2 2 0.43626 13.0803 0.761336
100 1 N2 2 4.33583 16.0002 7.77007
101 1 N2 2 7.0941 16.5484 1.9124
102 1 N2 2 -2.322 12.5321 6.61901
103 1 N2 2 -0.25115 11.7016 2.3533
104 1 N2 2 5.02324 17.3789 6.1781
105 1 O5 5 1.09935 10.4356 5.22719
106 1 O5 5 3.67274 18.6449 3.30421
107 1 O5 5 1.60189 15.2823 7.56992
108 1 O5 5 3.17021 13.7982 0.96149
109 1 O5 5 3.23852 10.0092 5.774
110 1 O5 5 1.53357 19.0713 2.7574
111 1 O5 5 -0.537285 14.856 7.02311
112 1 O5 5 5.30938 14.2245 1.5083
113 1 C3 3 -0.848651 17.444 2.19032
114 1 C3 3 5.62074 11.6365 6.34108
115 1 C3 3 7.6916 12.5973 2.07538
116 1 C3 3 -2.91951 16.4832 6.45603
117 1 C3 3 6.0844 16.8823 2.74868
118 1 C3 3 -1.31231 12.1982 5.78272
119 1 C3 3 0.758542 12.0355 1.51702
120 1 C3 3 4.01355 17.045 7.01439
121 1 C6 6 2.26632 9.99747 4.97503
122 1 C6 6 2.50578 19.083 3.55638
123 1 C6 6 0.434923 14.8442 7.82208
124 1 C6 6 4.33717 14.2363 0.709327
125 1 H4 4 0.121541 17.4971 1.71084
126 1 H4 4 4.65055 11.5834 6.82057
127 1 H4 4 6.72141 12.6504 2.55487
128 1 H4 4 -1.94931 16.4301 5.97654
129 1 H4 4 5.13202 16.3696 2.79427
130 1 H4 4 -0.359926 12.7109 5.73713
131 1 H4 4 1.71093 11.5229 1.47143
132 1 H4 4 3.06116 17.5576 7.05998
133 1 Zn1 1 -4.40211 10.2398 12.2742
134 1 Zn1 1 0.890787 18.8407 13.32
135 1 Zn1 1 2.96164 15.0866 9.05434
136 1 Zn1 1 -6.47297 13.9939 16.5399
137 1 N2 2 -5.37557 18.2841 11.6818
138 1 N2 2 1.86424 10.7964 13.9124
139 1 N2 2 3.9351 13.4373 9.64671
140 1 N2 2 -7.44642 15.6432 15.9475
141 1 N2 2 2.26498 17.9271 12.0358
142 1 N2 2 -5.7763 11.1534 13.5584
143 1 N2 2 -3.70545 13.0803 9.29274
144 1 N2 2 0.194124 16.0002 16.3015
145 1 N2 2 2.95239 16.5484 10.4438
146 1 N2 2 -6.46371 12.5321 15.1504
147 1 N2 2 -4.39286 11.7016 10.8847
148 1 N2 2 0.881535 17.3789 14.7095
149 1 O5 5 -3.04236 10.4356 13.7586
150 1 O5 5 -0.468969 18.6449 11.8356
151 1 O5 5 -2.53982 15.2823 16.1013
152 1 O5 5 -0.971501 13.7982 9.4929
153 1 O5 5 -0.903185 10.0092 14.3054
154 1 O5 5 -2.60814 19.0713 11.2888
155 1 O5 5 -4.67899 14.856 15.5545
156 1 O5 5 1.16767 14.2245 10.0397
157 1 C3 3 -4.99036 17.444 10.7217
158 1 C3 3 1.47903 11.6365 14.8725
159 1 C3 3 3.54989 12.5973 10.6068
160 1 C3 3 -7.06121 16.4832 14.9874
161 1 C3 3 1.9427 16.8823 11.2801
162 1 C3 3 -5.45402 12.1982 14.3141
163 1 C3 3 -3.38317 12.0355 10.0484
164 1 C3 3 -0.128158 17.045 15.5458
165 1 C6 6 -1.87539 9.99747 13.5064
166 1 C6 6 -1.63593 19.083 12.0878
167 1 C6 6 -3.70679 14.8442 16.3535
168 1 C6 6 0.195461 14.2363 9.24073
169 1 H4 4 -4.02017 17.4971 10.2422
170 1 H4 4 0.508843 11.5834 15.352
171 1 H4 4 2.5797 12.6504 11.0863
172 1 H4 4 -6.09102 16.4301 14.5079
173 1 H4 4 0.99031 16.3696 11.3257
174 1 H4 4 -4.50163 12.7109 14.2685
175 1 H4 4 -2.43078 11.5229 10.0028
176 1 H4 4 -1.08054 17.5576 15.5914
177 2 O 7 -1.63665 13.3676 14.3448
178 2 H 8 -2.11849 12.9882 15.0947
179 2 H 8 -1.94049 12.939 13.5313
180 2 O 7 -2.01116 15.5976 12.4615
181 2 H 8 -1.98262 16.5167 12.7664
182 2 H 8 -1.15518 15.183 12.6436
183 2 O 7 -3.57022 4.95277 12.9251
184 2 H 8 -4.52309 5.08719 12.8136
185 2 H 8 -3.23009 5.62699 13.5313
186 2 O 7 -1.79637 5.68589 11.281
187 2 H 8 -1.19254 5.61171 12.0349
188 2 H 8 -1.42385 6.31408 10.6451
189 2 O 7 3.00718 4.84796 4.50891
190 2 H 8 3.08594 5.80574 4.38673
191 2 H 8 2.13033 4.56741 4.20855
192 2 O 7 4.62829 2.86833 4.20529
193 2 H 8 4.30801 3.04005 3.30729
194 2 H 8 5.20583 3.5977 4.47405
195 3 C7 9 3.01435 9.56695 9.89188
196 3 O8 10 3.33837 8.73106 9.17161
197 3 O8 10 2.69032 10.4028 10.6121
198 3 C7 9 0.108838 11.6551 10.6022
199 3 O8 10 -0.581653 11.3361 11.4647
200 3 O8 10 0.79933 11.9741 9.73964
201 3 C7 9 -1.68302 6.75179 9.99367
202 3 O8 10 -1.58338 6.25668 8.9605
203 3 O8 10 -1.78266 7.24689 11.0268
204 3 C7 9 1.81522 10.5473 7.93355
205 3 O8 10 1.07634 9.81638 7.44134
206 3 O8 10 2.5541 11.2783 8.42577
207 3 C7 9 -2.60981 8.98842 7.21947
208 3 O8 10 -1.9584 9.27791 6.31705
209 3 O8 10 -3.26122 8.69894 8.12189
210 3 C7 9 0.165108 7.74658 7.02495
211 3 O8 10 0.951353 7.48538 6.22739
212 3 O8 10 -0.621137 8.00778 7.8225
ITEM: TIMESTEP
1250
ITEM: NUMBER OF ATOMS
212
ITEM: BOX BOUNDS xy xz yz pp pp pp
3.5094052110654417e-02 9.5041260479158751e+00 0.0000000000000000e+00
7.6327530505391650e-02 1.9310671569494531e+01 6.2541990002653292e-01
6.7177108398082552e-02 1.6995637991601924e+01 0.0000000000000000e+00
ITEM: ATOMS id mol element type x y z
1 1 Zn1 1 8.62393 19.0705 3.79323
2 1 Zn1 1 5.18433 9.12924 4.32695
3 1 Zn1 1 7.03396 4.88386 0.302985
4 1 Zn1 1 7.04176 3.66305 8.50226
5 1 N2 2 7.78559 8.53942 2.72264
6 1 N2 2 5.96545 0.81841 5.32037
7 1 N2 2 7.98217 3.38562 1.56336
8 1 N2 2 5.96371 5.5242 7.39327
9 1 N2 2 6.49858 8.27932 3.04125
10 1 N2 2 7.37291 0.784492 5.34426
11 1 N2 2 0.492766 3.24652 1.42943
12 1 N2 2 4.68894 5.87162 7.57523
13 1 N2 2 7.09242 6.64684 1.4873
14 1 N2 2 6.72087 2.11091 7.15949
15 1 N2 2 8.76343 1.63392 2.88907
16 1 N2 2 5.22125 7.20737 5.76925
17 1 O5 5 1.37037 18.4476 5.03663
18 1 O5 5 3.77052 9.09625 2.6062
19 1 O5 5 1.90594 4.97099 7.38879
20 1 O5 5 3.20253 4.90289 1.25232
21 1 O5 5 3.0835 0.578358 5.11914
22 1 O5 5 1.61574 9.66348 2.40544
23 1 O5 5 8.89653 4.02547 7.11537
24 1 O5 5 5.33189 4.14312 1.43677
25 1 C3 3 8.13417 7.50414 1.82664
26 1 C3 3 5.67843 1.65684 6.32583
27 1 C3 3 7.65337 2.42958 2.4994
28 1 C3 3 6.23761 6.43725 6.331
29 1 C3 3 6.11704 7.20133 2.24234
30 1 C3 3 7.73617 1.42422 6.50349
31 1 C3 3 0.89991 2.16884 2.19496
32 1 C3 3 4.30301 6.80195 6.66902
33 1 C6 6 2.18562 19.2238 4.52266
34 1 C6 6 2.68166 9.50189 3.02646
35 1 C6 6 0.843894 4.59208 7.82555
36 1 C6 6 4.27578 4.43313 0.824715
37 1 H4 4 0.200876 7.57896 1.24109
38 1 H4 4 4.60973 1.80703 6.4459
39 1 H4 4 6.62606 2.36296 2.88505
40 1 H4 4 7.00523 6.06255 5.66593
41 1 H4 4 5.08965 6.81551 2.34458
42 1 H4 4 8.49435 0.966537 7.1004
43 1 H4 4 1.88664 2.1622 2.64432
44 1 H4 4 3.23235 6.77788 6.28869
45 1 Zn1 1 4.28481 19.0343 12.9733
46 1 Zn1 1 1.03921 9.29725 13.6257
47 1 Zn1 1 3.2528 5.15291 9.05609
48 1 Zn1 1 1.66797 4.11892 0.111875
49 1 N2 2 3.71897 8.23471 11.947
50 1 N2 2 1.61428 1.08666 14.2825
51 1 N2 2 4.12132 3.19922 10.0457
52 1 N2 2 1.49343 5.70159 15.9199
53 1 N2 2 2.40139 7.93377 12.4072
54 1 N2 2 2.98995 0.985775 14.2836
55 1 N2 2 5.48742 2.83747 9.96507
56 1 N2 2 8.97467 5.91952 16.0347
57 1 N2 2 3.12415 6.21169 11.0863
58 1 N2 2 2.39757 2.54036 15.7543
59 1 N2 2 4.50896 1.4309 11.5004
60 1 N2 2 0.874876 7.52564 14.629
61 1 O5 5 6.03821 18.8083 14.6654
62 1 O5 5 8.23976 10.2674 12.2951
63 1 O5 5 6.11385 4.38448 15.7464
64 1 O5 5 8.82887 3.41877 9.67739
65 1 O5 5 7.97173 0.490039 14.4153
66 1 O5 5 6.52354 9.17949 12.0693
67 1 O5 5 3.83692 4.6688 15.6486
68 1 O5 5 1.6696 4.6393 10.0311
69 1 C3 3 3.96007 7.24846 11.1236
70 1 C3 3 1.33769 1.88676 15.3282
71 1 C3 3 3.6524 2.41021 11.0025
72 1 C3 3 1.89325 6.71088 14.9982
73 1 C3 3 2.05193 6.90762 11.5473
74 1 C3 3 3.44248 1.90874 15.1078
75 1 C3 3 5.62781 1.80118 10.7565
76 1 C3 3 8.60903 6.90875 15.1942
77 1 C6 6 7.1481 18.8739 14.1629
78 1 C6 6 7.25492 9.86175 12.7064
79 1 C6 6 4.96471 4.47744 16.1832
80 1 C6 6 0.886367 4.13808 9.24625
81 1 H4 4 4.13464 7.85373 10.2346
82 1 H4 4 9.17942 1.96063 15.756
83 1 H4 4 2.5899 2.32859 11.2249
84 1 H4 4 2.95838 6.92356 14.8473
85 1 H4 4 1.44549 6.21399 12.1828
86 1 H4 4 4.52349 2.07457 15.2582
87 1 H4 4 6.56111 1.60343 11.2224
88 1 H4 4 7.61597 7.34554 15.158
89 1 Zn1 1 8.86325 10.2351 3.83996
90 1 Zn1 1 4.83824 18.8945 3.88125
91 1 Zn1 1 6.58174 14.5896 0.262184
92 1 Zn1 1 6.28839 14.7117 8.14741
93 1 N2 2 7.41854 17.8339 2.84439
94 1 N2 2 6.26052 10.9434 5.24631
95 1 N2 2 7.77529 13.307 1.25195
96 1 N2 2 5.13247 16.0382 7.08296
97 1 N2 2 6.06681 17.8904 2.77264
98 1 N2 2 7.47879 11.5139 4.88882
99 1 N2 2 0.296545 13.2509 1.29542
100 1 N2 2 3.83323 16.445 7.38867
101 1 N2 2 6.64194 16.1979 1.4256
102 1 N2 2 6.5818 12.9586 6.47687
103 1 N2 2 8.48956 11.5724 2.632
104 1 N2 2 4.48249 17.6525 5.4953
105 1 O5 5 1.66142 10.8332 4.59846
106 1 O5 5 3.35597 19.3045 2.51469
107 1 O5 5 0.796073 15.4006 6.96487
108 1 O5 5 3.18006 15.2265 1.55503
109 1 O5 5 3.50509 9.73226 5.21367
110 1 O5 5 1.48164 18.2515 2.73555
111 1 O5 5 7.64913 16.2111 7.48702
112 1 O5 5 4.94512 13.8557 1.37817
113 1 C3 3 7.76059 16.8469 1.9757
114 1 C3 3 5.75149 11.8202 6.14575
115 1 C3 3 7.41475 12.2969 2.16734
116 1 C3 3 5.52866 16.9037 6.05955
117 1 C3 3 5.65211 16.9567 1.9647
118 1 C3 3 7.68466 12.648 5.65673
119 1 C3 3 0.668648 12.1384 2.00257
120 1 C3 3 3.4658 17.3533 6.44425
121 1 C6 6 2.57959 10.0147 4.43328
122 1 C6 6 2.36001 18.9433 3.1207
123 1 C6 6 8.72505 15.6757 7.71714
124 1 C6 6 4.13828 14.6762 1.00431
125 1 H4 4 8.80905 16.6343 1.64198
126 1 H4 4 4.65901 11.863 6.24374
127 1 H4 4 6.3317 12.052 2.38669
128 1 H4 4 6.47827 16.6995 5.62513
129 1 H4 4 4.80341 17.213 1.32246
130 1 H4 4 8.10408 13.4499 5.14749
131 1 H4 4 1.63673 12.1477 2.43114
132 1 H4 4 2.95032 18.2227 6.86988
133 1 Zn1 1 4.76402 9.85485 13.0474
134 1 Zn1 1 0.660839 18.598 13.2329
135 1 Zn1 1 2.66294 15.5945 8.39685
136 1 Zn1 1 1.66866 14.4259 0.19136
137 1 N2 2 3.19366 17.8814 11.8962
138 1 N2 2 2.18562 10.5369 14.6667
139 1 N2 2 3.94488 13.8429 9.97459
140 1 N2 2 0.995418 15.5857 16.1343
141 1 N2 2 1.85167 17.9014 11.7533
142 1 N2 2 3.48237 10.817 14.4299
143 1 N2 2 5.15177 13.4782 9.55185
144 1 N2 2 8.4415 15.4753 15.9661
145 1 N2 2 2.57513 16.8257 9.9523
146 1 N2 2 2.67424 12.4717 15.8617
147 1 N2 2 4.78525 12.1447 11.4768
148 1 N2 2 9.20624 16.9237 14.3478
149 1 O5 5 6.23273 9.21589 14.6587
150 1 O5 5 7.9503 19.0275 11.8543
151 1 O5 5 5.71395 14.216 15.9509
152 1 O5 5 7.76863 14.8217 9.53162
153 1 O5 5 8.17731 10.2589 14.8442
154 1 O5 5 6.05627 18.1115 12.0186
155 1 O5 5 4.02423 15.6642 16.1541
156 1 O5 5 1.04086 14.3094 9.00337
157 1 C3 3 3.55214 17.1727 10.7782
158 1 C3 3 1.80471 11.5022 15.6034
159 1 C3 3 3.76697 13.0333 11.1178
160 1 C3 3 1.36271 16.3974 15.1193
161 1 C3 3 1.4478 17.1862 10.6268
162 1 C3 3 3.79361 11.9228 15.1845
163 1 C3 3 5.61408 12.5438 10.5194
164 1 C3 3 8.14262 16.3546 15.0228
165 1 C6 6 7.1491 9.92439 14.2616
166 1 C6 6 7.02441 18.6352 12.5667
167 1 C6 6 4.87794 14.9168 16.5291
168 1 C6 6 8.78664 14.8158 8.8994
169 1 H4 4 4.54539 16.7197 10.6044
170 1 H4 4 0.855305 11.4642 16.1285
171 1 H4 4 2.80385 13.0588 11.5982
172 1 H4 4 2.33983 16.9734 15.2079
173 1 H4 4 0.590215 17.471 10.0714
174 1 H4 4 4.67787 12.401 15.0314
175 1 H4 4 6.59015 12.0303 10.3767
176 1 H4 4 7.16283 16.4233 14.6253
177 2 O 7 7.58664 13.4799 13.9785
178 2 H 8 8.07687 13.4644 14.8144
179 2 H 8 6.87723 14.1052 14.1002
180 2 O 7 6.45032 15.2189 12.4182
181 2 H 8 5.64511 14.6992 12.1463
182 2 H 8 7.0741 14.5093 12.3243
183 2 O 7 6.06522 5.20819 11.7058
184 2 H 8 5.29003 5.54002 11.1903
185 2 H 8 6.89253 5.39988 11.3033
186 2 O 7 9.32605 4.15586 12.5623
187 2 H 8 8.7387 3.63328 13.1756
188 2 H 8 0.542318 5.10984 13.2994
189 2 O 7 1.12183 6.32395 3.35811
190 2 H 8 0.161284 6.34305 3.28289
191 2 H 8 1.23287 6.8498 2.59916
192 2 O 7 3.87699 3.21204 4.12504
193 2 H 8 4.01099 4.11219 3.80182
194 2 H 8 2.98653 3.31171 4.42642
195 3 C7 9 2.86328 10.675 9.00043
196 3 O8 10 3.89481 10.1055 9.22318
197 3 O8 10 2.06775 11.3553 8.51256
198 3 C7 9 8.97593 12.6721 12.2425
199 3 O8 10 0.789816 12.2201 13.0822
200 3 O8 10 8.34263 13.2467 11.4759
201 3 C7 9 8.34889 6.66175 9.14431
202 3 O8 10 8.54814 7.34577 8.18116
203 3 O8 10 7.97145 6.09667 10.0744
204 3 C7 9 2.31259 14.6841 3.77065
205 3 O8 10 3.29535 14.0354 3.70001
206 3 O8 10 1.30869 15.2353 3.65075
207 3 C7 9 6.83771 10.2685 8.03791
208 3 O8 10 5.93878 9.56656 7.95527
209 3 O8 10 7.71049 10.9142 8.51473
210 3 C7 9 0.875459 9.05505 6.80264
211 3 O8 10 8.98205 9.88688 6.6648
212 3 O8 10 1.51826 8.14875 6.96051
ITEM: TIMESTEP
2500
ITEM: NUMBER OF ATOMS
212
ITEM: BOX BOUNDS xy xz yz pp pp pp
4.3588696960713769e-02 9.4944299211656347e+00 0.0000000000000000e+00
9.4802890998979095e-02 1.9292196209000934e+01 6.2421841812629864e-01
8.3437575445161727e-02 1.6979377524554863e+01 0.0000000000000000e+00
ITEM: ATOMS id mol element type x y z
1 1 Zn1 1 8.43084 19.1188 3.93219
2 1 Zn1 1 5.20334 8.42905 4.89505
3 1 Zn1 1 7.38481 5.10246 0.69404
4 1 Zn1 1 6.94313 4.12041 8.24891
5 1 N2 2 7.76993 8.3149 3.07449
6 1 N2 2 5.93177 0.824147 5.49837
7 1 N2 2 8.21521 3.53324 1.38726
8 1 N2 2 5.96871 5.60459 7.63556
9 1 N2 2 6.6964 7.76777 3.72944
10 1 N2 2 7.30228 1.08048 5.20638
11 1 N2 2 0.719543 3.3092 1.2767
12 1 N2 2 4.70158 5.93222 7.90501
13 1 N2 2 7.30832 6.26969 2.10566
14 1 N2 2 6.68642 2.81074 6.653
15 1 N2 2 8.82534 1.5321 2.62951
16 1 N2 2 5.41123 7.38422 6.30707
17 1 O5 5 0.875676 19.0811 5.61599
18 1 O5 5 3.65163 7.47711 3.3014
19 1 O5 5 2.03088 5.30675 7.2296
20 1 O5 5 3.72342 4.59823 1.86155
21 1 O5 5 3.10498 0.483029 5.50727
22 1 O5 5 2.10785 8.79714 2.4136
23 1 O5 5 8.75538 4.75906 6.89255
24 1 O5 5 5.78381 4.17304 1.6397
25 1 C3 3 8.1295 7.36924 2.11957
26 1 C3 3 5.66549 1.85054 6.45072
27 1 C3 3 7.86364 2.47084 2.22467
28 1 C3 3 6.30621 6.43454 6.54694
29 1 C3 3 6.45581 6.56027 3.14537
30 1 C3 3 7.74188 2.15797 5.94148
31 1 C3 3 1.07513 2.15462 1.90407
32 1 C3 3 4.42971 7.0045 7.12321
33 1 C6 6 2.05281 19.171 5.09935
34 1 C6 6 2.71568 8.23095 3.32777
35 1 C6 6 0.894307 4.91513 7.60532
36 1 C6 6 4.7789 4.72181 1.27984
37 1 H4 4 0.349589 7.33299 1.72272
38 1 H4 4 4.62233 2.01876 6.71742
39 1 H4 4 6.92309 2.37468 2.74521
40 1 H4 4 7.31122 6.60151 6.17999
41 1 H4 4 5.74464 5.90186 3.62223
42 1 H4 4 8.60597 2.68216 5.38138
43 1 H4 4 2.10528 1.96329 2.12143
44 1 H4 4 3.82411 7.71588 7.62594
45 1 Zn1 1 4.31903 0.354175 12.4314
46 1 Zn1 1 0.642548 9.20478 13.2014
47 1 Zn1 1 3.22473 5.26892 8.968
48 1 Zn1 1 2.06411 4.48562 0.209308
49 1 N2 2 3.26265 8.69519 11.3079
50 1 N2 2 1.80341 1.30522 13.8933
51 1 N2 2 4.00612 3.6233 9.74564
52 1 N2 2 1.59185 6.32466 16.1212
53 1 N2 2 2.08993 8.31324 11.918
54 1 N2 2 3.17053 1.41881 13.73
55 1 N2 2 5.26683 3.11883 9.37014
56 1 N2 2 9.0425 6.35886 16.2507
57 1 N2 2 2.63917 6.76458 10.4821
58 1 N2 2 2.59631 2.80579 15.3884
59 1 N2 2 4.39972 1.64734 10.7848
60 1 N2 2 0.585522 7.86604 14.6836
61 1 O5 5 5.98768 19.2834 14.2631
62 1 O5 5 8.02593 10.0445 11.8683
63 1 O5 5 6.18972 4.66338 16.0736
64 1 O5 5 8.42612 4.00145 9.45611
65 1 O5 5 8.05881 0.843326 14.0203
66 1 O5 5 6.20404 8.88253 11.7764
67 1 O5 5 4.29177 5.74569 16.4365
68 1 O5 5 1.50761 4.66741 9.76724
69 1 C3 3 3.58435 7.72828 10.5328
70 1 C3 3 1.49572 2.18511 14.8421
71 1 C3 3 3.55155 2.73902 10.6291
72 1 C3 3 1.74617 7.13366 15.0214
73 1 C3 3 1.64061 7.32232 11.1329
74 1 C3 3 3.59666 2.23197 14.6897
75 1 C3 3 5.45863 2.03929 10.0336
76 1 C3 3 8.46864 7.34562 15.5386
77 1 C6 6 6.96118 0.465932 13.6353
78 1 C6 6 7.12718 9.45859 12.2952
79 1 C6 6 5.3369 5.17783 16.8066
80 1 C6 6 0.701724 4.28718 8.95011
81 1 H4 4 4.64948 7.63973 10.4342
82 1 H4 4 9.40595 2.74218 14.6776
83 1 H4 4 2.46867 2.57811 10.7921
84 1 H4 4 2.77597 7.37422 14.7606
85 1 H4 4 0.856926 6.65815 11.3413
86 1 H4 4 4.59733 2.57643 14.748
87 1 H4 4 6.16521 1.30779 9.66651
88 1 H4 4 7.42728 7.71067 15.4923
89 1 Zn1 1 8.7387 9.65846 3.79726
90 1 Zn1 1 4.7351 18.5906 4.57337
91 1 Zn1 1 6.61411 14.7642 0.25587
92 1 Zn1 1 6.32081 14.2245 8.17482
93 1 N2 2 7.35308 17.575 3.24413
94 1 N2 2 6.03717 10.6139 5.51601
95 1 N2 2 8.02421 12.8648 0.677223
96 1 N2 2 5.3355 15.7181 7.48414
97 1 N2 2 6.00833 17.472 3.33795
98 1 N2 2 7.33441 11.0312 5.17306
99 1 N2 2 0.543755 12.7002 0.474666
100 1 N2 2 3.9352 15.8954 7.49046
101 1 N2 2 6.6531 15.9072 1.81835
102 1 N2 2 6.48873 12.5282 6.72506
103 1 N2 2 8.67038 10.9996 1.90072
104 1 N2 2 4.77647 17.5244 6.02527
105 1 O5 5 2.00446 9.92468 4.68204
106 1 O5 5 3.24128 19.2852 3.13671
107 1 O5 5 1.25678 14.3348 7.09327
108 1 O5 5 2.90682 14.3033 0.936725
109 1 O5 5 3.35682 8.52839 5.62517
110 1 O5 5 1.214 18.2532 3.07013
111 1 O5 5 8.05394 15.0693 7.34379
112 1 O5 5 4.87019 13.3365 0.725707
113 1 C3 3 7.66344 16.7729 2.21192
114 1 C3 3 5.57388 11.4793 6.4031
115 1 C3 3 7.60914 11.8424 1.51654
116 1 C3 3 5.78987 16.6598 6.47551
117 1 C3 3 5.63923 16.4691 2.51242
118 1 C3 3 7.4541 12.1698 5.89775
119 1 C3 3 0.904898 11.6259 1.31454
120 1 C3 3 3.68864 16.8775 6.6169
121 1 C6 6 2.7131 8.95621 4.67085
122 1 C6 6 2.25199 18.6909 3.63854
123 1 C6 6 8.95913 14.3368 7.58126
124 1 C6 6 3.83447 13.8583 0.304974
125 1 H4 4 8.67673 16.4175 2.06541
126 1 H4 4 4.55282 11.5967 6.25923
127 1 H4 4 6.5606 11.6868 1.6208
128 1 H4 4 6.82798 16.932 6.43831
129 1 H4 4 4.55097 16.1651 2.49837
130 1 H4 4 8.32139 12.855 5.64525
131 1 H4 4 1.88575 11.105 1.12173
132 1 H4 4 2.65917 17.1572 6.46251
133 1 Zn1 1 4.54583 10.2077 12.2335
134 1 Zn1 1 0.554134 18.9947 12.9615
135 1 Zn1 1 2.74016 15.0999 8.39406
136 1 Zn1 1 2.38375 14.2663 16.3873
137 1 N2 2 3.24184 18.1494 11.476
138 1 N2 2 2.13234 10.8187 13.8258
139 1 N2 2 3.76999 13.5752 9.58994
140 1 N2 2 1.13332 16.0453 15.7198
141 1 N2 2 1.90799 18.0094 11.5245
142 1 N2 2 3.38088 11.1905 13.4415
143 1 N2 2 5.03301 13.2216 9.2158
144 1 N2 2 8.6356 16.2913 16.1302
145 1 N2 2 2.60331 16.5719 9.81811
146 1 N2 2 2.71625 12.9759 14.7501
147 1 N2 2 4.5282 11.9131 11.0376
148 1 N2 2 9.40834 18.1568 14.8153
149 1 O5 5 5.84606 9.90426 14.1207
150 1 O5 5 7.75511 0.685125 11.6815
151 1 O5 5 5.67069 14.9047 15.5496
152 1 O5 5 7.9263 14.1357 9.75075
153 1 O5 5 7.94855 10.2672 14.2846
154 1 O5 5 5.78701 18.8269 11.8971
155 1 O5 5 3.65477 15.5506 16.1251
156 1 O5 5 1.2667 14.0042 9.55664
157 1 C3 3 3.5524 17.404 10.309
158 1 C3 3 1.77888 11.9277 14.5381
159 1 C3 3 3.50116 12.7345 10.6873
160 1 C3 3 1.53443 17.1505 14.9348
161 1 C3 3 1.59137 17.1546 10.4681
162 1 C3 3 3.73487 12.3955 14.0128
163 1 C3 3 5.4226 12.2539 10.1347
164 1 C3 3 8.31179 17.4703 15.5014
165 1 C6 6 7.00519 9.70845 13.7905
166 1 C6 6 6.69762 0.368317 12.1432
167 1 C6 6 4.61433 14.8283 16.173
168 1 C6 6 8.98971 14.2069 9.14943
169 1 H4 4 4.58765 17.1564 10.1412
170 1 H4 4 0.7101 12.172 14.4646
171 1 H4 4 2.71855 12.7997 11.3974
172 1 H4 4 2.53189 17.3001 14.6667
173 1 H4 4 0.662123 16.5611 10.3382
174 1 H4 4 4.78211 12.6756 14.2178
175 1 H4 4 6.43124 11.8705 10.22
176 1 H4 4 7.58251 18.1839 16.0046
177 2 O 7 6.90629 12.4616 15.2077
178 2 H 8 6.49885 12.0418 14.454
179 2 H 8 6.70033 11.9342 15.9855
180 2 O 7 4.70995 16.0756 12.8855
181 2 H 8 4.54941 15.6803 13.7256
182 2 H 8 5.659 16.1413 12.7502
183 2 O 7 7.546 5.52834 13.7497
184 2 H 8 6.73677 6.04848 14.0044
185 2 H 8 7.56044 4.68511 14.227
186 2 O 7 1.37461 4.45754 12.848
187 2 H 8 2.14281 4.91792 12.7326
188 2 H 8 1.5524 5.52466 13.56
189 2 O 7 1.73396 5.23362 3.9119
190 2 H 8 1.91831 5.53739 4.81347
191 2 H 8 2.35827 5.61066 3.25159
192 2 O 7 4.29706 4.49121 5.41111
193 2 H 8 3.52991 4.22962 4.87246
194 2 H 8 4.26901 5.39606 5.76178
195 3 C7 9 2.25762 11.3455 7.70634
196 3 O8 10 3.40763 11.0992 7.88617
197 3 O8 10 1.2011 11.5099 7.25367
198 3 C7 9 8.52928 13.997 12.5041
199 3 O8 10 8.3097 15.1627 12.5974
200 3 O8 10 8.6505 12.8325 12.4803
201 3 C7 9 7.14877 5.94369 10.516
202 3 O8 10 7.80572 6.41015 9.73062
203 3 O8 10 6.50031 5.74463 11.4609
204 3 C7 9 2.6773 13.6233 3.95884
205 3 O8 10 2.54686 12.502 3.72779
206 3 O8 10 2.96013 14.7343 4.14119
207 3 C7 9 8.65147 10.4658 9.37784
208 3 O8 10 7.58162 10.1636 8.9169
209 3 O8 10 0.856154 11.0015 9.80385
210 3 C7 9 0.749655 8.37961 7.72913
211 3 O8 10 8.53798 8.4249 7.09592
212 3 O8 10 1.66831 8.44703 8.50214
ITEM: TIMESTEP
3750
ITEM: NUMBER OF ATOMS
212
ITEM: BOX BOUNDS xy xz yz pp pp pp
1.1068833065683847e-03 9.5429203592055156e+00 0.0000000000000000e+00
2.4074070750970122e-03 1.9384591692924822e+01 6.3022704251207240e-01
2.1187983545871703e-03 1.7060696301645329e+01 0.0000000000000000e+00
ITEM: ATOMS id mol element type x y z
1 1 Zn1 1 8.90329 0.372423 4.077
2 1 Zn1 1 4.71218 8.96609 4.21764
3 1 Zn1 1 7.58296 4.6508 17.0093
4 1 Zn1 1 6.67503 4.35797 8.09502
5 1 N2 2 7.4976 8.91808 2.21491
6 1 N2 2 6.28733 0.929001 5.48364
7 1 N2 2 8.16517 3.44012 1.23635
8 1 N2 2 5.62969 6.02491 7.24122
9 1 N2 2 6.30576 8.3005 2.59559
10 1 N2 2 7.66664 1.06545 5.3342
11 1 N2 2 0.613988 3.23984 1.06978
12 1 N2 2 4.24142 6.13007 7.44597
13 1 N2 2 7.19725 6.95124 1.08126
14 1 N2 2 7.06775 2.72618 6.87697
15 1 N2 2 8.99064 2.02708 2.83377
16 1 N2 2 4.75201 7.66216 5.9204
17 1 O5 5 1.6236 18.4891 5.30753
18 1 O5 5 2.86286 8.58053 2.71329
19 1 O5 5 1.55058 4.35255 7.23565
20 1 O5 5 3.58687 4.54294 1.04685
21 1 O5 5 3.51318 19.3453 5.7957
22 1 O5 5 1.31355 10.0974 2.45482
23 1 O5 5 8.52732 5.6288 7.24115
24 1 O5 5 5.47892 3.54765 0.89182
25 1 C3 3 7.9947 8.06993 1.29474
26 1 C3 3 5.96821 1.96722 6.39929
27 1 C3 3 7.83854 2.62455 2.27353
28 1 C3 3 5.87954 6.87536 6.19688
29 1 C3 3 6.16471 7.20831 1.86593
30 1 C3 3 8.10051 2.13439 6.17441
31 1 C3 3 1.06601 2.32916 1.94185
32 1 C3 3 3.72754 7.07976 6.62571
33 1 C6 6 2.70053 18.9326 5.08053
34 1 C6 6 2.08142 9.42833 3.11366
35 1 C6 6 0.4978 4.87524 7.74271
36 1 C6 6 4.53105 4.08644 0.417906
37 1 H4 4 8.66285 8.4337 0.558736
38 1 H4 4 4.98471 2.24805 6.68887
39 1 H4 4 6.91699 2.76676 2.8855
40 1 H4 4 6.78997 7.43347 6.27171
41 1 H4 4 5.16931 6.79323 1.62534
42 1 H4 4 9.05537 2.48586 6.19858
43 1 H4 4 2.13718 2.18939 2.24353
44 1 H4 4 2.70771 7.30285 6.66005
45 1 Zn1 1 4.64262 0.147951 12.4315
46 1 Zn1 1 9.35718 8.90835 13.5037
47 1 Zn1 1 2.94154 5.01271 8.76561
48 1 Zn1 1 2.53141 3.87919 16.7154
49 1 N2 2 2.98971 8.49678 11.5602
50 1 N2 2 1.99017 0.754559 14.3028
51 1 N2 2 4.0916 3.50571 9.73335
52 1 N2 2 1.20186 5.55428 15.919
53 1 N2 2 1.72178 8.20521 11.8061
54 1 N2 2 3.35429 0.922943 14.2157
55 1 N2 2 5.35879 3.19386 9.50275
56 1 N2 2 8.75479 5.53983 15.8754
57 1 N2 2 2.43301 6.79937 10.0839
58 1 N2 2 2.73341 2.19365 15.9107
59 1 N2 2 4.54238 1.59558 11.0136
60 1 N2 2 9.30044 7.15896 14.3695
61 1 O5 5 5.95301 0.070495 14.1354
62 1 O5 5 7.97706 9.54893 12.2511
63 1 O5 5 6.20374 4.19301 15.2858
64 1 O5 5 7.93754 4.96575 9.49561
65 1 O5 5 8.14564 0.595155 14.0597
66 1 O5 5 6.04699 8.49148 11.9939
67 1 O5 5 4.20627 5.05937 15.6241
68 1 O5 5 1.11904 4.02209 9.87437
69 1 C3 3 3.41721 7.59254 10.5221
70 1 C3 3 1.68833 1.52565 15.3521
71 1 C3 3 3.64502 2.52933 10.5906
72 1 C3 3 1.46102 6.59336 15.02
73 1 C3 3 1.45178 7.12137 11.0586
74 1 C3 3 3.71685 1.87461 15.1059
75 1 C3 3 5.60623 2.12435 10.3393
76 1 C3 3 8.30845 6.49296 15.0246
77 1 C6 6 7.04888 0.168688 13.5665
78 1 C6 6 7.00562 8.96788 12.6004
79 1 C6 6 5.19108 4.43362 15.9829
80 1 C6 6 9.0306 4.45683 9.17674
81 1 H4 4 4.15788 7.80447 9.88425
82 1 H4 4 0.856518 1.24438 16.0155
83 1 H4 4 2.83387 2.80526 11.2949
84 1 H4 4 2.49492 6.84656 14.7664
85 1 H4 4 0.421968 6.83296 11.1192
86 1 H4 4 4.55669 1.51139 15.7475
87 1 H4 4 6.54851 1.62326 10.0771
88 1 H4 4 7.21763 6.74299 14.9086
89 1 Zn1 1 8.50024 10.4862 3.57707
90 1 Zn1 1 5.22355 18.7972 4.54309
91 1 Zn1 1 6.62544 15.2679 0.135691
92 1 Zn1 1 6.58592 14.0183 8.61377
93 1 N2 2 7.52367 18.5844 2.92704
94 1 N2 2 5.63036 10.7845 5.45558
95 1 N2 2 7.95317 13.829 1.16465
96 1 N2 2 5.74651 15.4637 7.31629
97 1 N2 2 6.20804 18.3012 3.19396
98 1 N2 2 7.0203 11.0823 5.29999
99 1 N2 2 0.422964 13.6759 1.03753
100 1 N2 2 4.44307 15.7951 7.56037
101 1 N2 2 6.70957 17.0268 1.341
102 1 N2 2 6.29799 12.4423 7.01434
103 1 N2 2 8.53799 12.1605 2.65514
104 1 N2 2 5.09945 17.2871 6.0317
105 1 O5 5 1.90518 11.1963 4.55057
106 1 O5 5 3.74188 0.0892482 3.15978
107 1 O5 5 1.46912 14.1673 7.38517
108 1 O5 5 2.98443 15.2266 1.39919
109 1 O5 5 2.9159 9.36256 5.2751
110 1 O5 5 1.67869 18.939 2.95421
111 1 O5 5 8.31857 15.016 7.55417
112 1 O5 5 4.89797 14.41 1.19902
113 1 C3 3 7.75874 17.7769 1.90932
114 1 C3 3 5.17966 11.6994 6.4349
115 1 C3 3 7.5474 12.9393 2.11166
116 1 C3 3 6.1577 16.5022 6.47042
117 1 C3 3 5.81016 17.2915 2.32022
118 1 C3 3 7.33907 12.0437 6.24868
119 1 C3 3 0.755305 12.6862 1.95144
120 1 C3 3 4.09687 16.782 6.69754
121 1 C6 6 2.33422 10.0649 4.4652
122 1 C6 6 2.66658 19.275 3.6115
123 1 C6 6 0.456753 14.5615 7.96788
124 1 C6 6 3.99652 15.1033 0.785633
125 1 H4 4 8.73943 17.8223 1.41561
126 1 H4 4 4.19226 11.8292 6.90606
127 1 H4 4 6.53136 12.559 2.10863
128 1 H4 4 6.99027 16.3051 5.82523
129 1 H4 4 4.78587 17.2219 2.1262
130 1 H4 4 8.28796 12.5172 6.19829
131 1 H4 4 1.71509 12.8298 2.45437
132 1 H4 4 3.09085 17.0179 6.57592
133 1 Zn1 1 4.25418 9.82447 12.87
134 1 Zn1 1 0.755037 18.9765 13.2256
135 1 Zn1 1 3.15039 14.8323 8.75073
136 1 Zn1 1 2.14794 14.4235 16.7698
137 1 N2 2 3.66923 18.1612 11.3023
138 1 N2 2 1.61802 10.6306 14.5092
139 1 N2 2 4.14954 13.2581 10.2712
140 1 N2 2 1.21187 16.0674 16.0465
141 1 N2 2 2.36828 17.7772 11.6327
142 1 N2 2 2.95451 10.9042 14.3282
143 1 N2 2 5.48551 13.0426 10.0386
144 1 N2 2 8.75031 16.3034 16.0399
145 1 N2 2 3.04337 16.4082 9.95121
146 1 N2 2 2.30619 12.679 15.7302
147 1 N2 2 4.65865 11.4844 11.4165
148 1 N2 2 0.861203 17.9598 14.7158
149 1 O5 5 5.45126 9.30918 14.4605
150 1 O5 5 8.12856 19.3796 11.5995
151 1 O5 5 5.71067 14.967 15.6604
152 1 O5 5 8.49947 14.4404 10.0953
153 1 O5 5 7.43549 10.3371 14.4254
154 1 O5 5 6.16621 18.5586 11.4785
155 1 O5 5 3.66001 15.2051 15.5024
156 1 O5 5 1.73782 13.8674 9.82923
157 1 C3 3 4.05635 17.126 10.4345
158 1 C3 3 1.27508 11.7274 15.295
159 1 C3 3 3.69614 12.2523 11.0237
160 1 C3 3 1.77282 17.0814 15.2112
161 1 C3 3 2.04736 16.7977 10.7589
162 1 C3 3 3.28552 12.0375 14.9931
163 1 C3 3 5.74385 11.8116 10.6594
164 1 C3 3 8.55747 17.3429 15.128
165 1 C6 6 6.62224 9.51213 14.0236
166 1 C6 6 7.10881 18.9924 12.0781
167 1 C6 6 4.63431 15.271 16.2121
168 1 C6 6 0.681762 14.3603 9.54748
169 1 H4 4 4.65638 17.4644 9.58067
170 1 H4 4 9.17745 12.1247 15.2198
171 1 H4 4 2.9793 12.5828 11.7462
172 1 H4 4 2.9003 17.1997 15.0687
173 1 H4 4 1.06752 16.7416 10.4067
174 1 H4 4 4.38138 12.3522 14.8067
175 1 H4 4 6.63376 11.6312 11.112
176 1 H4 4 7.71766 18.0577 15.311
177 2 O 7 5.15215 11.1752 0.186442
178 2 H 8 6.35373 11.5368 16.5436
179 2 H 8 4.30611 11.5973 0.15286
180 2 O 7 4.31825 14.896 13.1154
181 2 H 8 4.03234 15.0325 14.0398
182 2 H 8 3.47176 15.1574 12.6758
183 2 O 7 7.94817 3.18764 12.0118
184 2 H 8 7.01612 2.9197 12.1195
185 2 H 8 8.41647 2.91452 12.7672
186 2 O 7 3.47783 5.37552 12.7938
187 2 H 8 3.82016 5.9307 13.5135
188 2 H 8 3.99323 5.90896 12.1595
189 2 O 7 0.889501 5.73846 4.18217
190 2 H 8 1.70721 5.81543 3.58214
191 2 H 8 0.590766 6.64853 3.89249
192 2 O 7 4.58962 2.68665 3.65928
193 2 H 8 4.23482 1.83941 3.96904
194 2 H 8 4.20166 2.74061 2.79246
195 3 C7 9 3.99204 9.97453 8.65719
196 3 O8 10 5.04093 9.53082 8.53681