LAMMPS data file via write_data, version 2 Aug 2023, timestep = 10038, units = real

769 atoms
3 atom types
512 bonds
1 bond types
256 angles
1 angle types

1.2857311707847998 20.907705574939023 xlo xhi
1.2857311707847998 20.907705574939023 ylo yhi
1.2857311707847998 20.907705574939023 zlo zhi

Masses

1 6.94
2 15.9994
3 1.008

Atoms # full

218 74 2 -1.04844 5.518258586967293 9.873079258822141 10.41768532325356 0 0 0
445 149 3 0.52422 6.585309704372616 8.239990708481198 2.75870488888417 0 0 1
37 13 3 0.52422 7.872471769461162 10.146663070781328 4.02984134148255 0 0 0
220 74 3 0.52422 5.8088231216823925 10.68420961403629 10.834675864053338 0 0 0
535 179 3 0.52422 4.194205513146656 8.619549778770553 10.64847003230422 1 0 0
91 31 3 0.52422 7.295525808844812 7.261270456859962 7.280026960822029 0 0 0
127 43 3 0.52422 8.630568761129078 2.110747764365973 6.00628004665979 0 0 0
201 68 3 0.52422 10.594373405840914 1.5300179516201622 3.6030096499485937 0 1 0
158 54 2 -1.04844 10.81458610649385 8.351803077170892 4.372931931958101 0 0 0
11 5 2 -1.04844 2.762425082115335 3.2853504127601028 3.1769668866887364 0 0 0
12 5 3 0.52422 3.1601968959735967 3.9656301371922718 2.633608446717024 0 0 0
13 5 3 0.52422 3.24862421892756 2.48992949915588 2.9598094728603686 0 0 0
443 149 2 -1.04844 6.461739468566701 7.680403815293884 3.5254083673604506 0 0 1
120 41 3 0.52422 9.673176958926812 3.4214356750379284 7.300229646413104 0 0 0
90 31 3 0.52422 6.368598610000809 6.167457511296513 6.793921940235063 0 0 0
139 47 3 0.52422 8.680857145546248 4.675118908990544 8.720953132525542 0 0 0
231 78 3 0.52422 4.735373131835594 2.9386155567239305 10.652685118420031 0 1 0
29 11 2 -1.04844 7.384146339996837 4.4546823428214415 3.0454483332829447 0 0 0
308 104 2 -1.04844 11.00804757768421 9.025998476597426 7.093137781306864 0 0 0
128 44 2 -1.04844 10.942864022902565 5.721085634265746 1.9711026750490555 0 0 0
70 24 3 0.52422 9.493491379545608 9.136104425090384 7.73216543178211 0 0 0
23 9 2 -1.04844 4.601533624451542 8.470505810815029 5.448209746822527 0 0 0
89 31 2 -1.04844 7.213476149822179 6.579477370250799 6.613193131475222 0 0 0
79 27 3 0.52422 2.4383292052240186 3.977268596621252 4.764649519639722 0 0 0
26 10 2 -1.04844 8.852614957017064 6.600839295690634 4.4326741373486485 0 0 0
27 10 3 0.52422 8.382795712399913 6.848653633047533 5.228977630185005 0 0 0
28 10 3 0.52422 9.642454545520323 7.141495224337227 4.441943748692001 0 0 0
42 15 3 0.52422 7.841448379419575 10.40178987420307 6.855335300655671 0 0 0
78 27 3 0.52422 1.3203162004139914 4.074168429707278 5.780807103014137 0 0 0
174 59 3 0.52422 10.742793342479045 6.035161693902915 7.831733160181794 0 0 0
32 12 2 -1.04844 4.283956424152102 2.714145746538688 7.710938170913438 0 0 0
33 12 3 0.52422 4.613989298496232 2.9660235119079523 6.848455007444642 0 0 0
659 221 2 -1.04844 4.708246047640234 10.734566481898948 2.7587902277545515 0 0 1
130 44 3 0.52422 10.6596891529031 6.5271479442788 2.4027470247614904 0 0 0
36 13 3 0.52422 9.138090705377994 9.663476581902811 3.3540762987404387 0 0 0
125 43 2 -1.04844 7.976106053608934 1.7819122082829089 5.390011400288836 0 0 0
661 221 3 0.52422 5.511023731438758 10.704256226589015 2.2383379330606417 0 0 1
18 7 3 0.52422 2.696322386487472 2.973385488792652 8.499361700891043 0 0 0
422 142 2 -1.04844 8.107832812843274 3.332509203013101 10.066722293630754 0 0 0
88 30 3 0.52422 5.901688286040167 4.045746821164725 4.4302660855984515 0 0 0
54 19 3 0.52422 4.1762685249039615 9.93001136344071 7.035120756872129 0 0 0
73 25 3 0.52422 3.417035747435715 8.092703825761504 4.113957007463008 0 0 0
206 70 2 -1.04844 7.1907301316125904 7.767024096152833 9.23866889307257 0 0 0
35 13 2 -1.04844 8.483351286215644 10.361115988243958 3.324804126127367 0 0 0
41 15 2 -1.04844 7.5211960702814915 10.563604459297283 5.967925706341009 0 0 0
129 44 3 0.52422 10.13019674220294 5.2523592764870335 1.7810794931546359 0 0 0
232 78 3 0.52422 5.057485807090602 3.4368651290364305 9.259878739633706 0 1 0
119 41 2 -1.04844 10.172220824004055 2.719212393164807 6.883001884231883 0 0 0
87 30 3 0.52422 4.421081938916318 3.7339650050138977 4.480423850680297 0 0 0
126 43 3 0.52422 7.569566065995924 2.569579350161824 5.028698492090154 0 0 0
34 12 3 0.52422 4.499893342838744 1.784848575062044 7.788522409146643 0 0 0
53 19 2 -1.04844 3.8951387430658437 10.583069957426178 7.67599656033173 0 0 0
86 30 2 -1.04844 5.234560216588337 3.625657203168997 4.973134537046839 0 0 0
121 41 3 0.52422 11.0863631262041 2.98868173675672 6.972284890374736 0 0 0
56 20 2 -1.04844 4.262444762289055 6.349782061076753 7.117172126147989 0 0 0
57 20 3 0.52422 3.7184338294243924 6.494924449179261 7.891269744232892 0 0 0
58 20 3 0.52422 3.8755079190132165 5.584445130374051 6.691989124883664 0 0 0
59 21 2 -1.04844 2.2248044708155263 6.1048913304928885 8.896809068191764 0 0 0
55 19 3 0.52422 3.0321051823121143 10.283182147377195 7.961446540755475 0 0 0
660 221 3 0.52422 4.992582672319649 10.533715111440303 3.6504475180180367 0 0 1
419 141 2 -1.04844 3.8382525748402445 7.315068706577955 1.3088530998323629 0 0 1
649 217 3 0.52422 10.004831420787312 9.182648978550812 9.775767788756468 0 0 0
25 9 3 0.52422 4.491626952709745 7.752198023063876 6.071263339050926 0 0 0
219 74 3 0.52422 5.198658662417743 10.146409748140682 9.557808791883561 0 0 0
208 70 3 0.52422 6.475132945650575 8.231824319697967 9.672400087723048 0 0 0
455 153 2 -1.04844 4.872369721042149 4.839650753523049 2.031776599173338 0 0 1
444 149 3 0.52422 7.336487463914275 7.344423527938583 3.7207913010709617 0 0 1
68 24 2 -1.04844 8.763307898548572 9.550377542365824 8.19200369370476 0 0 0
424 142 3 0.52422 7.15792135819007 3.4389154964464206 10.117587370239043 0 0 0
31 11 3 0.52422 7.818146725101497 4.133939250206415 2.2548733307442492 0 0 0
420 141 3 0.52422 3.490433886428572 7.751166944355135 2.086723154160784 0 0 1
61 21 3 0.52422 2.497054441667328 6.707416146963194 9.588968776506013 0 0 0
30 11 3 0.52422 7.740912594553155 5.333360651117173 3.1753851881688977 0 0 0
423 142 3 0.52422 8.233733481097119 2.417232737227617 9.81640383257146 0 0 0
421 141 3 0.52422 4.241968564312577 6.51410964154476 1.6430974791082789 0 0 1
647 217 2 -1.04844 10.591446974557563 9.400816096566931 10.500009875143196 0 0 0
533 179 2 -1.04844 3.5799801030298712 7.88946908808483 10.571329699246263 1 0 0
17 7 2 -1.04844 1.855012334342173 3.3052327129987877 8.812915712876707 0 0 0
457 153 3 0.52422 5.671642351649003 4.913048138301899 2.553329496603215 0 0 1
207 70 3 0.52422 7.646242737391465 7.3127060710476375 9.94743171398248 0 0 0
24 9 3 0.52422 5.3630620819467305 8.220082930872259 4.925137942184945 0 0 0
138 47 3 0.52422 8.405574518179918 5.810013366901354 7.757546216886824 0 0 0
71 25 2 -1.04844 2.5912855914163786 8.139764463672982 3.6321237286920733 0 0 0
77 27 2 -1.04844 2.1886262247976314 4.420687018743822 5.575371297915889 0 0 0
137 47 2 -1.04844 9.116346827770393 5.284802592982476 8.125238556497496 0 0 0
230 78 2 -1.04844 5.320978100446669 3.5266664755190194 10.175711061708851 0 1 0
69 24 3 0.52422 8.139290104963248 8.839937152209043 8.340723406490104 0 0 0
72 25 3 0.52422 2.2363035773511313 9.002115388729152 3.847947652225088 0 0 0
19 7 3 0.52422 1.9573135109003714 4.256955245293296 8.81278378302302 0 0 0
407 137 2 -1.04844 2.1788367097165655 11.085453630516216 1.5844547982158872 0 0 1
160 54 3 0.52422 10.95688860988584 8.539553326405008 5.300693290667239 0 0 0
60 21 3 0.52422 1.3426416826288197 6.392461354620326 8.66157808068103 0 0 0
252 85 3 0.52422 1.32392863955209 10.796205901550953 3.2332696111072443 0 0 0
251 85 2 -1.04844 20.581796062147276 10.662213142808849 4.108320109265227 -1 0 0
370 124 3 0.52422 13.46563501277084 4.199324445198866 3.3980731566265923 0 1 0
337 113 3 0.52422 18.517946147118536 6.399581913025937 5.297203149431332 0 0 0
156 53 3 0.52422 14.550320370068622 2.1509058315233505 10.528214994964149 0 0 0
202 68 3 0.52422 11.100887885241239 2.243099508650067 4.838678151557084 0 1 0
107 37 2 -1.04844 19.036045328412037 6.635581698740578 9.315021195598126 0 0 0
136 46 3 0.52422 12.713951818000162 6.859126501468954 8.906676155289265 0 0 0
319 107 3 0.52422 18.303788570014355 2.475654617561168 5.397099980882212 0 1 0
175 59 3 0.52422 11.832223017240526 5.842658796684778 6.798290159485524 0 0 0
154 52 3 0.52422 18.830815790981728 9.513390666301222 7.812009217586083 0 0 0
336 113 3 0.52422 17.1869887649246 5.715965019495543 5.066683542629589 0 0 0
157 53 3 0.52422 13.636119991931809 1.6840664393256426 9.415462755394675 0 0 0
113 39 2 -1.04844 13.101832968176941 2.5814261843241466 2.610245755517244 0 0 0
554 186 2 -1.04844 15.860914680814505 8.972087883282962 2.7031921678180773 0 0 1
310 104 3 0.52422 11.750082316909442 9.597049078561593 7.291951710016338 0 0 0
145 49 3 0.52422 18.817936849996904 9.83490454836465 4.343012883070218 0 0 0
134 46 2 -1.04844 13.186807956373203 6.8573021488707875 9.73892916307521 0 0 0
151 51 3 0.52422 14.078000457987937 7.716416806390096 5.015609755810948 0 0 0
510 171 3 0.52422 15.058292545701232 4.667211039303407 8.440895606567949 0 0 0
94 32 3 0.52422 18.793140942296542 4.39729359942686 6.181599805786198 0 0 0
286 96 3 0.52422 19.331159910649045 6.181379863256029 2.7402285501532475 0 1 0
148 50 3 0.52422 12.658707545812593 4.032637103498075 5.381808593525273 0 0 0
309 104 3 0.52422 11.329421990682464 8.142858012629048 7.274859388757402 0 0 0
170 58 2 -1.04844 14.809429118851323 8.975259073214971 6.534366792665249 0 0 0
307 103 3 0.52422 17.793170170497657 10.462198552930081 10.307255241231076 0 0 0
564 189 3 0.52422 16.888466977003773 4.582528933001741 10.781758568553064 0 0 0
140 48 2 -1.04844 12.98723282170525 11.016043735771879 7.458039921663529 0 0 0
152 52 2 -1.04844 18.355372941695407 8.748648253978795 7.487410335290867 0 0 0
108 37 3 0.52422 18.80054284776808 7.295097477836973 9.967569168196912 0 0 0
555 186 3 0.52422 15.146670314380469 8.676861061027418 3.26793762342209 0 0 1
9 4 3 0.52422 20.60452820985213 7.437119504150177 4.038775897059914 -1 0 0
317 107 2 -1.04844 18.01150443634355 1.5738494283468993 5.264590517637153 0 1 0
8 4 2 -1.04844 19.998862253988552 6.810848251881503 4.435253394026624 -1 0 0
542 182 2 -1.04844 15.00736557053924 4.999060583286428 10.184316624148913 0 0 0
92 32 2 -1.04844 19.31359384088272 3.5997199647018867 6.277758114079409 0 0 0
109 37 3 0.52422 18.74753372682372 7.0084804771274305 8.481985250489824 0 0 0
769 257 3 0.52422 19.318538035395157 3.827767175510007 2.4028768824768063 0 1 1
543 182 3 0.52422 14.421959168757734 4.266009039519869 9.994116415800908 0 0 0
544 182 3 0.52422 14.44647519124789 5.773148191392215 10.135004506365755 0 0 0
144 49 3 0.52422 17.60307659913062 10.25071242305681 5.144971179433656 0 0 0
379 127 3 0.52422 15.606271912374979 1.8888238174735652 3.545546249200822 0 1 0
93 32 3 0.52422 19.123232116312472 3.294420839253993 7.164773453590154 0 0 0
511 171 3 0.52422 15.780479858689477 4.968273728540849 7.144853310365739 0 0 0
509 171 2 -1.04844 15.072404123028534 4.438691015502535 7.5114760141549075 0 0 0
171 58 3 0.52422 14.180430588590763 9.668884274459385 6.733078148047125 0 0 0
378 127 3 0.52422 17.076648935608763 2.102903675771138 3.8355118363400713 0 1 0
153 52 3 0.52422 18.14969770576261 8.96241813344534 6.577332618289804 0 0 0
114 39 3 0.52422 13.3505797233684 2.2205143098358606 1.7592998180811137 0 0 0
143 49 2 -1.04844 17.874081993781477 9.693124609402352 4.415661127705933 0 0 0
173 59 2 -1.04844 11.550898369867484 6.4278631750746955 7.501592078024054 0 0 0
335 113 2 -1.04844 17.839943353392737 5.892648987082955 5.743938580691383 0 0 0
563 189 2 -1.04844 17.730727384048063 4.933216896290601 11.071338687410474 0 0 0
767 257 2 -1.04844 19.838404464180982 3.088836477173804 2.0867097818655056 0 1 1
115 39 3 0.52422 12.942175730639818 1.8136726859991836 3.1591587280482267 0 0 0
146 50 2 -1.04844 12.521170061525867 3.9582221848938466 6.326153433572221 0 0 0
147 50 3 0.52422 13.39586001990739 4.049758041908597 6.704015833423496 0 0 0
295 99 3 0.52422 20.316420325568572 1.6479590361736125 7.455245761046792 0 1 0
10 4 3 0.52422 20.56317319180938 6.190178658886739 4.896299755489638 -1 0 0
753 252 3 0.52422 15.775837994230566 10.672782520001217 1.9281630387539415 0 0 1
172 58 3 0.52422 15.191427214695041 8.747644089310498 7.382016575026992 0 0 0
285 96 3 0.52422 17.91599539840381 5.665889012701645 2.586939728031508 0 1 0
284 96 2 -1.04844 18.79166909812247 5.598141883910609 2.206351748857338 0 1 0
556 186 3 0.52422 16.59909281860964 9.102844165744395 3.2983704269148038 0 0 1
565 189 3 0.52422 18.135495070766794 5.274585961370481 10.27392310111598 0 0 0
159 54 3 0.52422 11.686131572490138 8.405439023348102 3.9807929386082113 0 0 0
178 60 3 0.52422 15.678352820488792 4.9408156216235 2.4716217604885244 0 0 0
98 34 2 -1.04844 18.38558691319709 8.94398325832158 10.73671966918031 0 0 0
177 60 3 0.52422 16.252769339379185 3.7578540131891747 3.22166600381264 0 0 0
368 124 2 -1.04844 13.027089918386283 4.993307640050891 3.703867560323262 0 1 0
161 55 2 -1.04844 15.658774480486322 8.546765613900199 9.110852154578424 0 0 0
162 55 3 0.52422 15.423338631626965 9.34740522549483 9.579667116813527 0 0 0
163 55 3 0.52422 16.539781414198117 8.714747555257247 8.776412103277908 0 0 0
757 253 3 0.52422 18.69424071055624 1.7111641951105638 9.040780594713839 0 1 0
369 124 3 0.52422 12.134218593093859 4.91924002272898 3.366916357407459 0 1 0
176 60 2 -1.04844 16.257899821227923 4.714780012360434 3.1991342989259612 0 0 0
135 46 3 0.52422 13.958802578991127 7.399715383769322 9.577518232741623 0 0 0
168 57 3 0.52422 12.148293395909004 2.671118297754653 10.152950039162304 0 0 0
714 239 3 0.52422 12.20232477164366 10.454833172383571 10.672018756695731 0 0 0
755 253 2 -1.04844 18.919442019345087 2.5384618918664668 8.615217174062689 0 1 0
155 53 2 -1.04844 13.970019910753564 2.474720783151724 9.83927625389943 0 0 0
377 127 2 -1.04844 16.41713754169467 2.2084380849476877 3.149838077826723 0 1 0
150 51 3 0.52422 13.507784551705791 6.850891418784588 3.912143162523339 0 0 0
149 51 2 -1.04844 13.725235219975422 7.758029302422531 4.126752964171503 0 0 0
756 253 3 0.52422 19.68894004859227 2.8513331390591246 9.09084904687058 0 1 0
118 40 3 0.52422 17.104634449970813 2.0330181999780685 8.195179436983484 0 0 0
300 101 3 0.52422 20.474591500553146 1.8010966301429947 3.8424100088035966 0 1 0
553 185 3 0.52422 13.578983838421678 5.435848358663403 1.3987716103435404 0 0 1
396 133 3 0.52422 20.87574107719704 10.841712139012527 9.22786817872654 -1 0 0
768 257 3 0.52422 20.724127122139 3.2654173449757264 2.4038152609257217 0 1 1
395 133 2 -1.04844 20.88603380586352 10.691353195940136 8.28260233019542 -1 0 0
167 57 2 -1.04844 11.36274410489819 2.7968266598224787 10.68525730118037 0 0 0
200 68 2 -1.04844 11.215394415103466 1.4428057554321128 4.326175079024362 0 1 0
418 140 3 0.52422 11.116262896194891 5.964161965710173 10.95777723325089 0 0 0
116 40 2 -1.04844 16.5928779423118 1.3317026537200363 7.792062713155685 0 0 0
51 18 3 0.52422 4.443038161389913 18.379876931929637 10.528466997636107 0 -1 0
49 17 3 0.52422 7.957497235947321 13.47568956277493 3.7271329747209445 0 0 0
184 62 3 0.52422 6.850831978312027 13.443440579882585 9.623776544365866 0 0 0
76 26 3 0.52422 7.959285394612294 18.42376395701414 4.238875289359964 0 -1 0
39 14 3 0.52422 4.582352933880079 20.28060902168253 2.1730402198069805 0 -1 0
199 67 3 0.52422 6.802833025302006 13.625222771177743 7.485718949142432 0 0 0
235 79 3 0.52422 9.004092691392554 14.42285416741433 1.8920349912724315 0 0 0
52 18 3 0.52422 5.052582334129165 19.331817791760784 9.521400263680135 0 -1 0
376 126 3 0.52422 9.791466727092967 12.522534138284154 7.933085977122303 0 0 0
696 233 3 0.52422 2.5802239075928215 14.264518438244286 10.234695726504343 1 0 0
47 17 2 -1.04844 8.73886895949467 13.195006627116983 3.250775293473264 0 0 0
271 91 3 0.52422 9.652297558343129 16.7926743738901 2.1319328298615905 0 0 0
194 66 2 -1.04844 5.417815265648478 15.58454851490004 3.808915816884878 0 0 0
195 66 3 0.52422 4.5778233020450525 15.778766066212569 4.224769595099435 0 0 0
196 66 3 0.52422 5.332622043933372 15.933262090000344 2.9215701869696824 0 0 0
197 67 2 -1.04844 7.337554346426486 14.036343544391347 8.164905328055173 0 0 0
66 23 3 0.52422 8.298758910697916 19.881337858751937 8.661600360126211 0 -1 0
266 90 2 -1.04844 6.748301303940636 13.43651771467225 4.998232058298221 0 0 0
375 126 3 0.52422 9.154372423491468 11.339688905998408 8.63087308697785 0 0 0
212 72 2 -1.04844 5.367239071828463 20.03385766085493 6.20985167685415 0 0 0
74 26 2 -1.04844 8.200016402646181 19.201640679753073 3.735687679726975 0 -1 0
331 111 3 0.52422 1.874371846726398 16.248369546693 4.562347226856783 1 0 0
241 81 3 0.52422 7.28282920444087 16.97430623698922 6.094600786280279 0 0 0
263 89 2 -1.04844 1.814500450335301 18.828088561767874 9.00844625214298 0 0 0
182 62 2 -1.04844 6.4589415540312425 13.059102614576299 10.407962486746294 0 0 0
678 227 3 0.52422 3.064422147748136 17.967860674011973 4.402575197531785 0 0 1
500 168 2 -1.04844 10.449979368988636 19.64639415240619 11.040090660025296 0 -1 0
387 130 3 0.52422 2.9106587855695523 15.571725374142606 7.0283609170891665 1 0 0
265 89 3 0.52422 2.551101456961151 19.16409325000373 9.51909397200246 0 0 0
628 210 3 0.52422 8.823459301166533 20.212499044568666 2.2413453173190017 0 0 1
50 18 2 -1.04844 4.371924941330868 19.27311382557795 10.191848384315982 0 -1 0
40 14 3 0.52422 3.0977145667285413 20.031261936059206 2.013059510837576 0 -1 0
183 62 3 0.52422 7.200194960849898 12.698772441553537 10.89473436872456 0 0 0
214 72 3 0.52422 4.700117291740291 19.79245952959172 5.5672656557958415 0 0 0
240 81 3 0.52422 6.889181351514433 16.38364074382315 4.757411744953719 0 0 0
386 130 2 -1.04844 2.454653094725523 14.758528805545893 6.811539589426232 1 0 0
330 111 3 0.52422 2.707103448770749 16.014766623862005 3.3198068290634515 1 0 0
501 168 3 0.52422 9.9759009920321 20.017543860615948 10.295954245765465 0 -1 0
374 126 2 -1.04844 9.182174999046447 12.296476958386611 8.635868340267262 0 0 0
221 75 2 -1.04844 6.423287195844354 16.587295344955002 8.012183757130202 0 0 0
222 75 3 0.52422 5.523086423588142 16.40888111295795 7.74006571585684 0 0 0
223 75 3 0.52422 6.8777355386835035 15.752287527911738 7.900469965160644 0 0 0
21 8 3 0.52422 3.24296558929646 17.620082424733702 8.049285435748452 0 -1 0
272 92 2 -1.04844 6.025388723200326 19.34822776648622 1.7792458939013711 0 0 0
274 92 3 0.52422 5.5895356021984695 18.50051047264455 1.866703209678245 0 0 0
210 71 3 0.52422 1.4097658353426243 13.819433060079513 5.641777089413653 0 0 0
273 92 3 0.52422 6.604975937108248 19.399630825038447 2.5392970003281263 0 0 0
233 79 2 -1.04844 8.979697755790266 15.250340455867725 1.4115012796803106 0 0 0
75 26 3 0.52422 8.19924572835906 19.912126508053056 4.377131866076458 0 -1 0
48 17 3 0.52422 8.603487444446781 12.259909956739685 3.097454130832874 0 0 0
20 8 2 -1.04844 3.660436431728986 17.143683960185776 7.331647707763295 0 -1 0
267 90 3 0.52422 6.300538352239738 14.043160660546691 4.408542316530619 0 0 0
198 67 3 0.52422 8.045379302468763 13.411877008719028 8.323860497704395 0 0 0
22 8 3 0.52422 3.5195929790520477 17.696222051015038 6.562813463190787 0 -1 0
236 80 2 -1.04844 3.795627885577343 12.949023749044411 9.849051685006584 0 0 0
237 80 3 0.52422 3.863280660040007 12.977455301878761 8.89466388386846 0 0 0
102 35 3 0.52422 10.54723075931117 11.714508666464898 2.521085136305051 0 0 0
329 111 2 -1.04844 2.7591198994946304 16.35508746385051 4.2129570516158825 1 0 0
679 227 3 0.52422 3.1336450813849384 19.39297724231982 3.8964429467265496 0 0 1
238 80 3 0.52422 4.6960714713701694 13.05299824010417 10.156674830422912 0 0 0
278 94 2 -1.04844 4.462518814510258 17.167801816785953 1.618370460930598 0 0 0
264 89 3 0.52422 1.6438938539590162 19.50839391217841 8.35704826227677 0 0 0
269 91 2 -1.04844 10.163139470890277 17.555779265481693 2.402030591713248 0 0 0
245 83 2 -1.04844 4.694676144007012 12.980478841423864 6.894160658278068 0 0 0
246 83 3 0.52422 3.981712433767572 13.61892994780287 6.911603471126975 0 0 0
247 83 3 0.52422 4.260979931505619 12.13352064076123 6.9981353928379395 0 0 0
248 84 2 -1.04844 6.583024922903043 19.330828921196073 8.428365249929069 0 0 0
249 84 3 0.52422 6.470498908749934 18.380285401771573 8.421563772817839 0 0 0
250 84 3 0.52422 6.191764731568005 19.62470337568527 7.605689960740617 0 0 0
192 65 3 0.52422 9.817185729600105 12.206193215511487 10.434075472388654 0 0 0
65 23 2 -1.04844 8.959145832754247 20.47940555894994 9.011522453170791 0 -1 0
213 72 3 0.52422 6.029801556374824 20.50338046841052 5.703096703442742 0 0 0
270 91 3 0.52422 9.565162909084384 18.06269907076946 2.9513007038683146 0 0 0
239 81 2 -1.04844 7.466765631957424 17.03392102500998 5.157128239029419 0 0 0
268 90 3 0.52422 6.053184226054216 13.086422977890765 5.555445876112864 0 0 0
626 210 2 -1.04844 9.491168215141924 20.707100759895017 1.7661871624523067 0 0 1
38 14 2 -1.04844 3.732896334032227 20.495169524160055 2.558564054767139 0 -1 0
677 227 2 -1.04844 3.270523372578913 18.860495329514634 4.680004449180904 0 0 1
409 137 3 0.52422 3.0829641692507903 11.120305377120522 1.8968331345506435 0 0 1
695 233 2 -1.04844 2.007327108371119 14.948413093845502 10.58156556636359 1 0 0
388 130 3 0.52422 1.603034379067803 14.839065824177034 7.2410749966062244 1 0 0
43 15 3 0.52422 7.941884545639613 11.382734904356974 5.706606308227993 0 0 0
408 137 3 0.52422 1.9584741592418216 11.99541995563208 1.3853494212295607 0 0 1
279 94 3 0.52422 3.514548958969744 17.10712447849886 1.5004182200166258 0 0 0
67 23 3 0.52422 9.531922113416602 20.666242926225802 8.267707660293679 0 -1 0
259 87 3 0.52422 3.3683299297299825 16.147088812803396 10.875160774675914 0 0 0
627 210 3 0.52422 10.05906395787638 20.0379132994979 1.3841873281217012 0 0 1
620 208 2 -1.04844 1.893766472273347 16.676768001759257 1.2908683645213657 0 0 1
3 2 3 0.52422 11.57858706564304 14.022390158528877 7.2477465843237106 0 0 0
2 2 2 -1.04844 11.302098898486026 13.261204231662994 6.737460770516795 0 0 0
316 106 3 0.52422 14.16706996378178 12.202098523243826 2.6825888082297076 0 0 0
432 145 3 0.52422 12.279239906582687 19.7349619131398 8.495411357819414 0 -1 0
298 100 3 0.52422 14.164511232728936 19.352656525227342 4.298165782435941 0 0 0
288 97 3 0.52422 11.92503942084689 17.59906178766945 2.292650678058879 0 0 0
744 249 3 0.52422 15.748163068322206 15.883344436271372 8.06848123453274 0 0 0
141 48 3 0.52422 12.424629412093944 11.757291806766062 7.233830126673075 0 0 0
242 82 2 -1.04844 17.912469129638254 12.614210763655649 1.6575844726372693 -1 0 0
366 123 3 0.52422 18.864350162720818 14.055124762750026 8.082186747504807 0 0 0
365 123 2 -1.04844 18.469052245421583 14.113138138079146 7.212350363405112 0 0 0
325 109 3 0.52422 16.692611804574803 14.281400133767278 3.721188219491658 0 0 0
346 116 3 0.52422 11.911648234196672 16.060824893001794 7.76435875517403 0 0 0
123 42 3 0.52422 17.072461672290252 12.345905687936725 5.122955805940559 0 0 0
743 249 2 -1.04844 16.40556392520133 16.497998833119205 7.742497447489645 0 0 0
293 99 2 -1.04844 20.683242146913933 20.53502944050945 6.963718364737725 0 0 0
318 107 3 0.52422 18.80296546988253 20.722173914472556 5.00868711624636 0 0 0
683 229 2 -1.04844 19.347709661052384 18.17993139402823 2.4005637363070136 -1 0 1
244 82 3 0.52422 17.58208630515958 12.588300720137564 2.5555918078504973 -1 0 0
243 82 3 0.52422 18.864960482306273 12.618976863656957 1.7523410975062597 -1 0 0
180 61 3 0.52422 13.547661242869216 20.147688641125445 6.217013174390303 0 -1 0
85 29 3 0.52422 16.0744293933236 19.09906508061728 4.180626594890104 -1 -1 0
294 99 3 0.52422 19.927262379537385 19.98833215023464 6.749573671487874 0 0 0
675 226 3 0.52422 12.576873672203567 14.280303840919393 3.6366953001906923 0 0 1
352 118 3 0.52422 16.124934303182002 11.776733537116872 8.747377343848678 0 0 0
341 115 2 -1.04844 16.56772094059442 18.67453909071196 9.251529725237397 0 0 0
324 109 3 0.52422 15.523019983888474 13.320186053431534 3.7147634684743034 0 0 0
311 105 2 -1.04844 14.448832319288522 17.382307642137743 5.968966948276771 0 0 0
312 105 3 0.52422 15.191382583819768 17.003392574805474 6.439375069967249 0 0 0
313 105 3 0.52422 14.472060755942609 18.312566522204648 6.1932885456785645 0 0 0
209 71 2 -1.04844 20.435591835622645 13.331814347081737 5.073379002750668 -1 0 0
205 69 3 0.52422 19.238302480008596 16.842228030455438 9.567487474178671 -1 0 0
83 29 2 -1.04844 16.98526829532433 18.90617517575512 4.402904095371051 -1 -1 0
84 29 3 0.52422 17.276807289712437 19.66839608650417 4.9031696303219166 -1 -1 0
297 100 3 0.52422 13.859783402118875 19.16499853703795 2.827164658218982 0 0 0
124 42 3 0.52422 17.627597907199604 12.66254700623966 6.495355506755603 0 0 0
733 245 3 0.52422 19.553565359441066 19.34784927262289 9.616133704635596 0 0 0
672 225 3 0.52422 20.763184868749057 14.34770046074617 2.071325556001459 -1 0 1
289 97 3 0.52422 13.30997966973756 17.05547031333414 2.57259302638027 0 0 0
431 145 2 -1.04844 12.71509361196543 19.61662069310297 9.33937120118725 0 -1 0
674 226 2 -1.04844 11.983514770579053 15.030272707646677 3.5953041770443215 0 0 1
142 48 3 0.52422 13.861888608783575 11.395592539532176 7.542664285135481 0 0 0
326 110 2 -1.04844 11.938372269045244 16.687046504818568 5.765953169091934 0 0 0
327 110 3 0.52422 11.818383071904755 16.3303583524191 4.8858296186096535 0 0 0
328 110 3 0.52422 12.840154834395614 17.007928436600583 5.773973816212051 0 0 0
383 129 2 -1.04844 11.80503016096175 19.35606815129564 6.597084942400308 0 0 0
345 116 3 0.52422 12.943554110362342 15.176480749877983 8.431460392517254 0 0 0
261 88 3 0.52422 19.516134580056114 17.27611821494445 3.9547186002804566 -1 0 0
332 112 2 -1.04844 14.651903917372751 14.775591310777932 8.795152165288677 0 0 0
333 112 3 0.52422 14.94271103530767 14.77987002061123 9.707102969320106 0 0 0
334 112 3 0.52422 14.97316496014498 13.944795809287934 8.44470742255356 0 0 0
260 88 2 -1.04844 19.70574447087161 16.773540195613414 4.746996807958246 -1 0 0
101 35 2 -1.04844 11.403286068850637 11.302355972361898 2.4047203436621825 0 0 0
342 115 3 0.52422 16.391111542401333 19.436337595077273 8.699521126969067 0 0 0
338 114 2 -1.04844 17.12536126966009 16.249991102637903 3.5555365603631337 0 0 0
339 114 3 0.52422 16.92945140238399 17.1502832317272 3.8150259314233024 0 0 0
340 114 3 0.52422 17.993722580717336 16.078733740530314 3.9200374046654427 0 0 0
684 229 3 0.52422 18.51521831364757 18.238773941791337 1.931802586101085 -1 0 1
745 249 3 0.52422 16.471706987530432 17.163952622004942 8.42687454228604 0 0 0
385 129 3 0.52422 11.71703054029636 18.431269876493513 6.36633499239507 0 0 0
344 116 2 -1.04844 11.999156108081923 15.287918632688433 8.322211398696044 0 0 0
314 106 2 -1.04844 13.530342836187115 12.624838195466012 3.258879566621105 0 0 0
181 61 3 0.52422 14.772462641220839 20.879653324549377 6.7229856259404945 0 -1 0
347 117 2 -1.04844 18.60536056557566 18.642564449694934 7.009886928493059 0 0 0
348 117 3 0.52422 18.9805502493623 17.98860447701295 7.5996414719057 0 0 0
349 117 3 0.52422 17.69948919709063 18.360257758977326 6.883627975434544 0 0 0
367 123 3 0.52422 18.020037678528684 14.958486500709926 7.208692103291971 0 0 0
315 106 3 0.52422 12.8381526649582 11.97321874692864 3.3707106752854203 0 0 0
122 42 2 -1.04844 17.366595428733063 11.932134633429957 5.934448375524838 0 0 0
103 35 3 0.52422 11.497260980576213 11.207801239672806 1.456844072339636 0 0 0
343 115 3 0.52422 17.422868817789187 18.854338674106653 9.642215710498775 0 0 0
296 100 2 -1.04844 14.404906354933953 19.67236610815642 3.4285467479176672 0 0 0
287 97 2 -1.04844 12.851048402849292 17.754337807176015 2.1065376243289986 0 0 0
203 69 2 -1.04844 19.651044579038135 16.84618407186627 8.703850032158154 -1 0 0
558 187 3 0.52422 18.784627463724576 12.503726174123578 9.870834709844264 0 0 0
290 98 2 -1.04844 14.038232224323433 17.64189096759933 10.842849828781207 0 0 0
323 109 2 -1.04844 16.47341356097579 13.355235457370663 3.823229520878878 0 0 0
361 121 3 0.52422 17.004815933207723 15.515523180985225 1.9103580543574552 0 0 0
685 229 3 0.52422 19.40610193465885 19.00051635818743 2.8899224782128963 -1 0 1
433 145 3 0.52422 12.001069666561119 19.58729982319749 9.976200378338609 0 -1 0
262 88 3 0.52422 19.223227136476208 17.22556603962547 5.439160787485883 -1 0 0
292 98 3 0.52422 13.713221415543773 18.358007878263205 10.297152235824969 0 0 0
676 226 3 0.52422 11.228893656339205 14.71218482457161 3.0997152578094216 0 0 1
305 103 2 -1.04844 17.34674178137058 11.254850378629738 10.009520265126676 0 0 0
557 187 2 -1.04844 19.492678041437216 13.061256121624721 9.548242021011204 0 0 0
299 101 2 -1.04844 20.32310590994743 20.505580863062495 4.069357580850491 0 0 0
179 61 2 -1.04844 14.487996124136334 20.244030205708846 6.066248734262913 0 -1 0
211 71 3 0.52422 19.567897449377565 13.486083161862704 5.446941398435206 -1 0 0
358 120 3 0.52422 16.46084053890356 20.161606320806694 10.944471438887645 0 0 0
253 85 3 0.52422 20.529253513399276 11.541225776466293 4.4835765498139235 -1 0 0
384 129 3 0.52422 11.481416789432794 19.82688950732767 5.829072597737297 0 0 0
204 69 3 0.52422 20.49185571982139 17.28239214051635 8.841692234901855 -1 0 0
559 187 3 0.52422 19.80395602171468 13.527048041619466 10.324376772639338 0 0 0
397 133 3 0.52422 20.43956783337569 11.45337690599177 7.913509823344488 -1 0 0
671 225 2 -1.04844 20.612210948024554 13.764907003162516 1.327148174127747 -1 0 1
228 77 3 0.52422 11.402701846502405 15.225737783372487 10.61472738496614 0 0 0
731 245 2 -1.04844 18.88651047089494 19.771701197790826 10.156160220769257 0 0 0
351 118 3 0.52422 16.07767448598384 12.294069376483643 7.325389643199682 0 0 0
350 118 2 -1.04844 15.644404150850875 12.374909217119182 8.17508550513871 0 0 0
750 251 3 0.52422 16.25749084732619 19.924881457709727 1.7694824097234818 0 0 1
306 103 3 0.52422 17.275701332712487 11.799190278977237 10.79366861555105 0 0 0