2
# CELL(abcABC):  188.97261   188.97261   188.97261    90.00000    90.00000    90.00000  Step:           0  Bead:       0 x_centroid{angstrom}  cell{atomic_unit}
       O  3.21303e+00  1.23787e+00  2.12970e+00
       H  3.45421e+00  1.13953e+00  1.21050e+00
2
# CELL(abcABC):  188.97261   188.97261   188.97261    90.00000    90.00000    90.00000  Step:           4  Bead:       0 x_centroid{angstrom}  cell{atomic_unit}
       O  3.20955e+00  1.23905e+00  2.12962e+00
       H  3.45461e+00  1.14219e+00  1.20497e+00
2
# CELL(abcABC):  188.97261   188.97261   188.97261    90.00000    90.00000    90.00000  Step:           8  Bead:       0 x_centroid{angstrom}  cell{atomic_unit}
       O  3.20627e+00  1.24006e+00  2.12925e+00
       H  3.45361e+00  1.14674e+00  1.20414e+00
2
# CELL(abcABC):  188.97261   188.97261   188.97261    90.00000    90.00000    90.00000  Step:          12  Bead:       0 x_centroid{angstrom}  cell{atomic_unit}
       O  3.20315e+00  1.24101e+00  2.12862e+00
       H  3.45097e+00  1.15194e+00  1.20758e+00
2
# CELL(abcABC):  188.97261   188.97261   188.97261    90.00000    90.00000    90.00000  Step:          16  Bead:       0 x_centroid{angstrom}  cell{atomic_unit}
       O  3.20002e+00  1.24206e+00  2.12781e+00
       H  3.44735e+00  1.15613e+00  1.21370e+00
2
# CELL(abcABC):  188.97261   188.97261   188.97261    90.00000    90.00000    90.00000  Step:          20  Bead:       0 x_centroid{angstrom}  cell{atomic_unit}
       O  3.19688e+00  1.24327e+00  2.12684e+00
       H  3.44331e+00  1.15802e+00  1.22228e+00
2
# CELL(abcABC):  188.97261   188.97261   188.97261    90.00000    90.00000    90.00000  Step:          24  Bead:       0 x_centroid{angstrom}  cell{atomic_unit}
       O  3.19368e+00  1.24460e+00  2.12584e+00
       H  3.43982e+00  1.15806e+00  1.23135e+00
2
# CELL(abcABC):  188.97261   188.97261   188.97261    90.00000    90.00000    90.00000  Step:          28  Bead:       0 x_centroid{angstrom}  cell{atomic_unit}
       O  3.19039e+00  1.24595e+00  2.12501e+00
       H  3.43827e+00  1.15756e+00  1.23773e+00
2
# CELL(abcABC):  188.97261   188.97261   188.97261    90.00000    90.00000    90.00000  Step:          32  Bead:       0 x_centroid{angstrom}  cell{atomic_unit}
       O  3.18701e+00  1.24727e+00  2.12443e+00
       H  3.43869e+00  1.15736e+00  1.24024e+00
2
# CELL(abcABC):  188.97261   188.97261   188.97261    90.00000    90.00000    90.00000  Step:          36  Bead:       0 x_centroid{angstrom}  cell{atomic_unit}
       O  3.18356e+00  1.24853e+00  2.12415e+00
       H  3.44023e+00  1.15804e+00  1.23789e+00
2
# CELL(abcABC):  188.97261   188.97261   188.97261    90.00000    90.00000    90.00000  Step:          40  Bead:       0 x_centroid{angstrom}  cell{atomic_unit}
       O  3.18010e+00  1.24970e+00  2.12414e+00
       H  3.44161e+00  1.16032e+00  1.23129e+00
2
# CELL(abcABC):  188.97261   188.97261   188.97261    90.00000    90.00000    90.00000  Step:          44  Bead:       0 x_centroid{angstrom}  cell{atomic_unit}
       O  3.17675e+00  1.25076e+00  2.12414e+00
       H  3.44120e+00  1.16450e+00  1.22454e+00
2
# CELL(abcABC):  188.97261   188.97261   188.97261    90.00000    90.00000    90.00000  Step:          48  Bead:       0 x_centroid{angstrom}  cell{atomic_unit}
       O  3.17358e+00  1.25179e+00  2.12383e+00
       H  3.43809e+00  1.16888e+00  1.22272e+00
2
# CELL(abcABC):  188.97261   188.97261   188.97261    90.00000    90.00000    90.00000  Step:          52  Bead:       0 x_centroid{angstrom}  cell{atomic_unit}
       O  3.17053e+00  1.25293e+00  2.12318e+00
       H  3.43322e+00  1.17155e+00  1.22640e+00
2
# CELL(abcABC):  188.97261   188.97261   188.97261    90.00000    90.00000    90.00000  Step:          56  Bead:       0 x_centroid{angstrom}  cell{atomic_unit}
       O  3.16754e+00  1.25415e+00  2.12227e+00
       H  3.42749e+00  1.17294e+00  1.23412e+00
2
# CELL(abcABC):  188.97261   188.97261   188.97261    90.00000    90.00000    90.00000  Step:          60  Bead:       0 x_centroid{angstrom}  cell{atomic_unit}
       O  3.16443e+00  1.25542e+00  2.12128e+00
       H  3.42219e+00  1.17412e+00  1.24284e+00
2
# CELL(abcABC):  188.97261   188.97261   188.97261    90.00000    90.00000    90.00000  Step:          64  Bead:       0 x_centroid{angstrom}  cell{atomic_unit}
       O  3.16106e+00  1.25671e+00  2.12046e+00
       H  3.41919e+00  1.17562e+00  1.24877e+00
2
# CELL(abcABC):  188.97261   188.97261   188.97261    90.00000    90.00000    90.00000  Step:          68  Bead:       0 x_centroid{angstrom}  cell{atomic_unit}
       O  3.15751e+00  1.25803e+00  2.11984e+00
       H  3.41881e+00  1.17678e+00  1.25152e+00
2
# CELL(abcABC):  188.97261   188.97261   188.97261    90.00000    90.00000    90.00000  Step:          72  Bead:       0 x_centroid{angstrom}  cell{atomic_unit}
       O  3.15389e+00  1.25940e+00  2.11938e+00
       H  3.41958e+00  1.17719e+00  1.25159e+00
2
# CELL(abcABC):  188.97261   188.97261   188.97261    90.00000    90.00000    90.00000  Step:          76  Bead:       0 x_centroid{angstrom}  cell{atomic_unit}
       O  3.15030e+00  1.26074e+00  2.11916e+00
       H  3.42046e+00  1.17783e+00  1.24804e+00
2
# CELL(abcABC):  188.97261   188.97261   188.97261    90.00000    90.00000    90.00000  Step:          80  Bead:       0 x_centroid{angstrom}  cell{atomic_unit}
       O  3.14671e+00  1.26200e+00  2.11917e+00
       H  3.42137e+00  1.17966e+00  1.24085e+00
2
# CELL(abcABC):  188.97261   188.97261   188.97261    90.00000    90.00000    90.00000  Step:          84  Bead:       0 x_centroid{angstrom}  cell{atomic_unit}
       O  3.14305e+00  1.26322e+00  2.11927e+00
       H  3.42288e+00  1.18226e+00  1.23214e+00
2
# CELL(abcABC):  188.97261   188.97261   188.97261    90.00000    90.00000    90.00000  Step:          88  Bead:       0 x_centroid{angstrom}  cell{atomic_unit}
       O  3.13933e+00  1.26443e+00  2.11922e+00
       H  3.42467e+00  1.18541e+00  1.22574e+00
2
# CELL(abcABC):  188.97261   188.97261   188.97261    90.00000    90.00000    90.00000  Step:          92  Bead:       0 x_centroid{angstrom}  cell{atomic_unit}
       O  3.13561e+00  1.26560e+00  2.11894e+00
       H  3.42645e+00  1.18922e+00  1.22291e+00
2
# CELL(abcABC):  188.97261   188.97261   188.97261    90.00000    90.00000    90.00000  Step:          96  Bead:       0 x_centroid{angstrom}  cell{atomic_unit}
       O  3.13181e+00  1.26672e+00  2.11856e+00
       H  3.42891e+00  1.19391e+00  1.22156e+00
2
# CELL(abcABC):  188.97261   188.97261   188.97261    90.00000    90.00000    90.00000  Step:         100  Bead:       0 x_centroid{angstrom}  cell{atomic_unit}
       O  3.12801e+00  1.26784e+00  2.11809e+00
       H  3.43112e+00  1.19890e+00  1.22175e+00
2
# CELL(abcABC):  188.97261   188.97261   188.97261    90.00000    90.00000    90.00000  Step:         104  Bead:       0 x_centroid{angstrom}  cell{atomic_unit}
       O  3.12429e+00  1.26899e+00  2.11738e+00
       H  3.43171e+00  1.20337e+00  1.22569e+00
2
# CELL(abcABC):  188.97261   188.97261   188.97261    90.00000    90.00000    90.00000  Step:         108  Bead:       0 x_centroid{angstrom}  cell{atomic_unit}
       O  3.12069e+00  1.27022e+00  2.11660e+00
       H  3.43056e+00  1.20662e+00  1.23075e+00
2
# CELL(abcABC):  188.97261   188.97261   188.97261    90.00000    90.00000    90.00000  Step:         112  Bead:       0 x_centroid{angstrom}  cell{atomic_unit}
       O  3.11716e+00  1.27152e+00  2.11593e+00
       H  3.42847e+00  1.20854e+00  1.23397e+00
2
# CELL(abcABC):  188.97261   188.97261   188.97261    90.00000    90.00000    90.00000  Step:         116  Bead:       0 x_centroid{angstrom}  cell{atomic_unit}
       O  3.11352e+00  1.27291e+00  2.11539e+00
       H  3.42679e+00  1.20963e+00  1.23509e+00
2
# CELL(abcABC):  188.97261   188.97261   188.97261    90.00000    90.00000    90.00000  Step:         120  Bead:       0 x_centroid{angstrom}  cell{atomic_unit}
       O  3.10967e+00  1.27436e+00  2.11501e+00
       H  3.42653e+00  1.21055e+00  1.23345e+00
2
# CELL(abcABC):  188.97261   188.97261   188.97261    90.00000    90.00000    90.00000  Step:         124  Bead:       0 x_centroid{angstrom}  cell{atomic_unit}
       O  3.10567e+00  1.27580e+00  2.11479e+00
       H  3.42839e+00  1.21178e+00  1.22916e+00
2
# CELL(abcABC):  188.97261   188.97261   188.97261    90.00000    90.00000    90.00000  Step:         128  Bead:       0 x_centroid{angstrom}  cell{atomic_unit}
       O  3.10164e+00  1.27718e+00  2.11458e+00
       H  3.43126e+00  1.21375e+00  1.22469e+00
2
# CELL(abcABC):  188.97261   188.97261   188.97261    90.00000    90.00000    90.00000  Step:         132  Bead:       0 x_centroid{angstrom}  cell{atomic_unit}
       O  3.09768e+00  1.27847e+00  2.11413e+00
       H  3.43268e+00  1.21711e+00  1.22415e+00
2
# CELL(abcABC):  188.97261   188.97261   188.97261    90.00000    90.00000    90.00000  Step:         136  Bead:       0 x_centroid{angstrom}  cell{atomic_unit}
       O  3.09381e+00  1.27971e+00  2.11322e+00
       H  3.43111e+00  1.22202e+00  1.23058e+00
2
# CELL(abcABC):  188.97261   188.97261   188.97261    90.00000    90.00000    90.00000  Step:         140  Bead:       0 x_centroid{angstrom}  cell{atomic_unit}
       O  3.09013e+00  1.28089e+00  2.11191e+00
       H  3.42648e+00  1.22784e+00  1.24353e+00
2
# CELL(abcABC):  188.97261   188.97261   188.97261    90.00000    90.00000    90.00000  Step:         144  Bead:       0 x_centroid{angstrom}  cell{atomic_unit}
       O  3.08662e+00  1.28209e+00  2.11035e+00
       H  3.41916e+00  1.23332e+00  1.26026e+00
2
# CELL(abcABC):  188.97261   188.97261   188.97261    90.00000    90.00000    90.00000  Step:         148  Bead:       0 x_centroid{angstrom}  cell{atomic_unit}
       O  3.08314e+00  1.28339e+00  2.10897e+00
       H  3.41105e+00  1.23750e+00  1.27413e+00
2
# CELL(abcABC):  188.97261   188.97261   188.97261    90.00000    90.00000    90.00000  Step:         152  Bead:       0 x_centroid{angstrom}  cell{atomic_unit}
       O  3.07949e+00  1.28475e+00  2.10805e+00
       H  3.40522e+00  1.24076e+00  1.28081e+00
2
# CELL(abcABC):  188.97261   188.97261   188.97261    90.00000    90.00000    90.00000  Step:         156  Bead:       0 x_centroid{angstrom}  cell{atomic_unit}
       O  3.07557e+00  1.28613e+00  2.10752e+00
       H  3.40294e+00  1.24390e+00  1.28104e+00
2
# CELL(abcABC):  188.97261   188.97261   188.97261    90.00000    90.00000    90.00000  Step:         160  Bead:       0 x_centroid{angstrom}  cell{atomic_unit}
       O  3.07148e+00  1.28752e+00  2.10726e+00
       H  3.40302e+00  1.24719e+00  1.27705e+00
2
# CELL(abcABC):  188.97261   188.97261   188.97261    90.00000    90.00000    90.00000  Step:         164  Bead:       0 x_centroid{angstrom}  cell{atomic_unit}
       O  3.06743e+00  1.28883e+00  2.10714e+00
       H  3.40450e+00  1.25079e+00  1.27095e+00
2
# CELL(abcABC):  188.97261   188.97261   188.97261    90.00000    90.00000    90.00000  Step:         168  Bead:       0 x_centroid{angstrom}  cell{atomic_unit}
       O  3.06335e+00  1.29016e+00  2.10704e+00
       H  3.40637e+00  1.25431e+00  1.26463e+00
2
# CELL(abcABC):  188.97261   188.97261   188.97261    90.00000    90.00000    90.00000  Step:         172  Bead:       0 x_centroid{angstrom}  cell{atomic_unit}
       O  3.05948e+00  1.29147e+00  2.10677e+00
       H  3.40635e+00  1.25746e+00  1.26121e+00
2
# CELL(abcABC):  188.97261   188.97261   188.97261    90.00000    90.00000    90.00000  Step:         176  Bead:       0 x_centroid{angstrom}  cell{atomic_unit}
       O  3.05582e+00  1.29282e+00  2.10633e+00
       H  3.40295e+00  1.25997e+00  1.26033e+00
2
# CELL(abcABC):  188.97261   188.97261   188.97261    90.00000    90.00000    90.00000  Step:         180  Bead:       0 x_centroid{angstrom}  cell{atomic_unit}
       O  3.05237e+00  1.29421e+00  2.10595e+00
       H  3.39658e+00  1.26177e+00  1.25878e+00
2
# CELL(abcABC):  188.97261   188.97261   188.97261    90.00000    90.00000    90.00000  Step:         184  Bead:       0 x_centroid{angstrom}  cell{atomic_unit}
       O  3.04903e+00  1.29562e+00  2.10577e+00
       H  3.38872e+00  1.26316e+00  1.25382e+00
2
# CELL(abcABC):  188.97261   188.97261   188.97261    90.00000    90.00000    90.00000  Step:         188  Bead:       0 x_centroid{angstrom}  cell{atomic_unit}
       O  3.04567e+00  1.29705e+00  2.10583e+00
       H  3.38108e+00  1.26408e+00  1.24527e+00
2
# CELL(abcABC):  188.97261   188.97261   188.97261    90.00000    90.00000    90.00000  Step:         192  Bead:       0 x_centroid{angstrom}  cell{atomic_unit}
       O  3.04226e+00  1.29852e+00  2.10580e+00
       H  3.37346e+00  1.26485e+00  1.23801e+00
2
# CELL(abcABC):  188.97261   188.97261   188.97261    90.00000    90.00000    90.00000  Step:         196  Bead:       0 x_centroid{angstrom}  cell{atomic_unit}
       O  3.03888e+00  1.29988e+00  2.10551e+00
       H  3.36669e+00  1.26677e+00  1.23495e+00
2
# CELL(abcABC):  188.97261   188.97261   188.97261    90.00000    90.00000    90.00000  Step:         200  Bead:       0 x_centroid{angstrom}  cell{atomic_unit}
       O  3.03548e+00  1.30105e+00  2.10501e+00
       H  3.36240e+00  1.27095e+00  1.23552e+00
2
# CELL(abcABC):  188.97261   188.97261   188.97261    90.00000    90.00000    90.00000  Step:         204  Bead:       0 x_centroid{angstrom}  cell{atomic_unit}
       O  3.03190e+00  1.30210e+00  2.10431e+00
       H  3.36080e+00  1.27717e+00  1.23925e+00
2
# CELL(abcABC):  188.97261   188.97261   188.97261    90.00000    90.00000    90.00000  Step:         208  Bead:       0 x_centroid{angstrom}  cell{atomic_unit}
       O  3.02825e+00  1.30308e+00  2.10347e+00
       H  3.36091e+00  1.28407e+00  1.24530e+00
2
# CELL(abcABC):  188.97261   188.97261   188.97261    90.00000    90.00000    90.00000  Step:         212  Bead:       0 x_centroid{angstrom}  cell{atomic_unit}
       O  3.02459e+00  1.30412e+00  2.10271e+00
       H  3.36112e+00  1.29013e+00  1.25012e+00
2
# CELL(abcABC):  188.97261   188.97261   188.97261    90.00000    90.00000    90.00000  Step:         216  Bead:       0 x_centroid{angstrom}  cell{atomic_unit}
       O  3.02107e+00  1.30528e+00  2.10227e+00
       H  3.35948e+00  1.29416e+00  1.24973e+00
2
# CELL(abcABC):  188.97261   188.97261   188.97261    90.00000    90.00000    90.00000  Step:         220  Bead:       0 x_centroid{angstrom}  cell{atomic_unit}
       O  3.01783e+00  1.30651e+00  2.10209e+00
       H  3.35457e+00  1.29659e+00  1.24550e+00
2
# CELL(abcABC):  188.97261   188.97261   188.97261    90.00000    90.00000    90.00000  Step:         224  Bead:       0 x_centroid{angstrom}  cell{atomic_unit}
       O  3.01474e+00  1.30777e+00  2.10185e+00
       H  3.34649e+00  1.29882e+00  1.24210e+00
2
# CELL(abcABC):  188.97261   188.97261   188.97261    90.00000    90.00000    90.00000  Step:         228  Bead:       0 x_centroid{angstrom}  cell{atomic_unit}
       O  3.01180e+00  1.30897e+00  2.10141e+00
       H  3.33718e+00  1.30161e+00  1.24202e+00
2
# CELL(abcABC):  188.97261   188.97261   188.97261    90.00000    90.00000    90.00000  Step:         232  Bead:       0 x_centroid{angstrom}  cell{atomic_unit}
       O  3.00886e+00  1.31006e+00  2.10079e+00
       H  3.32942e+00  1.30556e+00  1.24510e+00
2
# CELL(abcABC):  188.97261   188.97261   188.97261    90.00000    90.00000    90.00000  Step:         236  Bead:       0 x_centroid{angstrom}  cell{atomic_unit}
       O  3.00568e+00  1.31104e+00  2.10012e+00
       H  3.32652e+00  1.31084e+00  1.24895e+00
2
# CELL(abcABC):  188.97261   188.97261   188.97261    90.00000    90.00000    90.00000  Step:         240  Bead:       0 x_centroid{angstrom}  cell{atomic_unit}
       O  3.00218e+00  1.31195e+00  2.09949e+00
       H  3.32876e+00  1.31717e+00  1.25224e+00
2
# CELL(abcABC):  188.97261   188.97261   188.97261    90.00000    90.00000    90.00000  Step:         244  Bead:       0 x_centroid{angstrom}  cell{atomic_unit}
       O  2.99848e+00  1.31282e+00  2.09884e+00
       H  3.33460e+00  1.32391e+00  1.25586e+00
2
# CELL(abcABC):  188.97261   188.97261   188.97261    90.00000    90.00000    90.00000  Step:         248  Bead:       0 x_centroid{angstrom}  cell{atomic_unit}
       O  2.99462e+00  1.31373e+00  2.09831e+00
       H  3.34275e+00  1.33013e+00  1.25755e+00
2
# CELL(abcABC):  188.97261   188.97261   188.97261    90.00000    90.00000    90.00000  Step:         252  Bead:       0 x_centroid{angstrom}  cell{atomic_unit}
       O  2.99080e+00  1.31472e+00  2.09789e+00
       H  3.35079e+00  1.33501e+00  1.25756e+00
2
# CELL(abcABC):  188.97261   188.97261   188.97261    90.00000    90.00000    90.00000  Step:         256  Bead:       0 x_centroid{angstrom}  cell{atomic_unit}
       O  2.98707e+00  1.31581e+00  2.09748e+00
       H  3.35652e+00  1.33856e+00  1.25745e+00
2
# CELL(abcABC):  188.97261   188.97261   188.97261    90.00000    90.00000    90.00000  Step:         260  Bead:       0 x_centroid{angstrom}  cell{atomic_unit}
       O  2.98351e+00  1.31700e+00  2.09711e+00
       H  3.35903e+00  1.34077e+00  1.25651e+00
2
# CELL(abcABC):  188.97261   188.97261   188.97261    90.00000    90.00000    90.00000  Step:         264  Bead:       0 x_centroid{angstrom}  cell{atomic_unit}
       O  2.97997e+00  1.31826e+00  2.09673e+00
       H  3.35966e+00  1.34239e+00  1.25543e+00
2
# CELL(abcABC):  188.97261   188.97261   188.97261    90.00000    90.00000    90.00000  Step:         268  Bead:       0 x_centroid{angstrom}  cell{atomic_unit}
       O  2.97648e+00  1.31943e+00  2.09638e+00
       H  3.36060e+00  1.34507e+00  1.25423e+00
2
# CELL(abcABC):  188.97261   188.97261   188.97261    90.00000    90.00000    90.00000  Step:         272  Bead:       0 x_centroid{angstrom}  cell{atomic_unit}
       O  2.97295e+00  1.32042e+00  2.09603e+00
       H  3.36241e+00  1.35038e+00  1.25296e+00
2
# CELL(abcABC):  188.97261   188.97261   188.97261    90.00000    90.00000    90.00000  Step:         276  Bead:       0 x_centroid{angstrom}  cell{atomic_unit}
       O  2.96931e+00  1.32129e+00  2.09570e+00
       H  3.36535e+00  1.35804e+00  1.25126e+00
2
# CELL(abcABC):  188.97261   188.97261   188.97261    90.00000    90.00000    90.00000  Step:         280  Bead:       0 x_centroid{angstrom}  cell{atomic_unit}
       O  2.96548e+00  1.32217e+00  2.09544e+00
       H  3.37001e+00  1.36593e+00  1.24829e+00
2
# CELL(abcABC):  188.97261   188.97261   188.97261    90.00000    90.00000    90.00000  Step:         284  Bead:       0 x_centroid{angstrom}  cell{atomic_unit}
       O  2.96164e+00  1.32316e+00  2.09516e+00
       H  3.37498e+00  1.37194e+00  1.24562e+00
2
# CELL(abcABC):  188.97261   188.97261   188.97261    90.00000    90.00000    90.00000  Step:         288  Bead:       0 x_centroid{angstrom}  cell{atomic_unit}
       O  2.95790e+00  1.32431e+00  2.09471e+00
       H  3.37882e+00  1.37547e+00  1.24578e+00
2
# CELL(abcABC):  188.97261   188.97261   188.97261    90.00000    90.00000    90.00000  Step:         292  Bead:       0 x_centroid{angstrom}  cell{atomic_unit}
       O  2.95428e+00  1.32553e+00  2.09396e+00
       H  3.38121e+00  1.37753e+00  1.25074e+00
2
# CELL(abcABC):  188.97261   188.97261   188.97261    90.00000    90.00000    90.00000  Step:         296  Bead:       0 x_centroid{angstrom}  cell{atomic_unit}
       O  2.95077e+00  1.32675e+00  2.09293e+00
       H  3.38196e+00  1.37954e+00  1.26013e+00
2
# CELL(abcABC):  188.97261   188.97261   188.97261    90.00000    90.00000    90.00000  Step:         300  Bead:       0 x_centroid{angstrom}  cell{atomic_unit}
       O  2.94742e+00  1.32786e+00  2.09175e+00
       H  3.38089e+00  1.38301e+00  1.27202e+00
2
# CELL(abcABC):  188.97261   188.97261   188.97261    90.00000    90.00000    90.00000  Step:         304  Bead:       0 x_centroid{angstrom}  cell{atomic_unit}
       O  2.94419e+00  1.32877e+00  2.09058e+00
       H  3.37899e+00  1.38940e+00  1.28397e+00
2
# CELL(abcABC):  188.97261   188.97261   188.97261    90.00000    90.00000    90.00000  Step:         308  Bead:       0 x_centroid{angstrom}  cell{atomic_unit}
       O  2.94094e+00  1.32951e+00  2.08956e+00
       H  3.37749e+00  1.39835e+00  1.29343e+00
2
# CELL(abcABC):  188.97261   188.97261   188.97261    90.00000    90.00000    90.00000  Step:         312  Bead:       0 x_centroid{angstrom}  cell{atomic_unit}
       O  2.93752e+00  1.33014e+00  2.08893e+00
       H  3.37780e+00  1.40937e+00  1.29668e+00
2
# CELL(abcABC):  188.97261   188.97261   188.97261    90.00000    90.00000    90.00000  Step:         316  Bead:       0 x_centroid{angstrom}  cell{atomic_unit}
       O  2.93396e+00  1.33075e+00  2.08873e+00
       H  3.38093e+00  1.42046e+00  1.29314e+00
2
# CELL(abcABC):  188.97261   188.97261   188.97261    90.00000    90.00000    90.00000  Step:         320  Bead:       0 x_centroid{angstrom}  cell{atomic_unit}
       O  2.93020e+00  1.33150e+00  2.08883e+00
       H  3.38796e+00  1.42916e+00  1.28490e+00
2
# CELL(abcABC):  188.97261   188.97261   188.97261    90.00000    90.00000    90.00000  Step:         324  Bead:       0 x_centroid{angstrom}  cell{atomic_unit}
       O  2.92615e+00  1.33247e+00  2.08900e+00
       H  3.39847e+00  1.43469e+00  1.27533e+00
2
# CELL(abcABC):  188.97261   188.97261   188.97261    90.00000    90.00000    90.00000  Step:         328  Bead:       0 x_centroid{angstrom}  cell{atomic_unit}
       O  2.92206e+00  1.33362e+00  2.08887e+00
       H  3.40886e+00  1.43766e+00  1.27061e+00
2
# CELL(abcABC):  188.97261   188.97261   188.97261    90.00000    90.00000    90.00000  Step:         332  Bead:       0 x_centroid{angstrom}  cell{atomic_unit}
       O  2.91818e+00  1.33487e+00  2.08815e+00
       H  3.41565e+00  1.43921e+00  1.27514e+00
2
# CELL(abcABC):  188.97261   188.97261   188.97261    90.00000    90.00000    90.00000  Step:         336  Bead:       0 x_centroid{angstrom}  cell{atomic_unit}
       O  2.91451e+00  1.33612e+00  2.08692e+00
       H  3.41872e+00  1.44089e+00  1.28762e+00
2
# CELL(abcABC):  188.97261   188.97261   188.97261    90.00000    90.00000    90.00000  Step:         340  Bead:       0 x_centroid{angstrom}  cell{atomic_unit}
       O  2.91103e+00  1.33730e+00  2.08551e+00
       H  3.41894e+00  1.44366e+00  1.30304e+00
2
# CELL(abcABC):  188.97261   188.97261   188.97261    90.00000    90.00000    90.00000  Step:         344  Bead:       0 x_centroid{angstrom}  cell{atomic_unit}
       O  2.90763e+00  1.33843e+00  2.08430e+00
       H  3.41782e+00  1.44720e+00  1.31532e+00
2
# CELL(abcABC):  188.97261   188.97261   188.97261    90.00000    90.00000    90.00000  Step:         348  Bead:       0 x_centroid{angstrom}  cell{atomic_unit}
       O  2.90416e+00  1.33950e+00  2.08346e+00
       H  3.41758e+00  1.45173e+00  1.32175e+00
2
# CELL(abcABC):  188.97261   188.97261   188.97261    90.00000    90.00000    90.00000  Step:         352  Bead:       0 x_centroid{angstrom}  cell{atomic_unit}
       O  2.90055e+00  1.34051e+00  2.08296e+00
       H  3.42019e+00  1.45707e+00  1.32278e+00
2
# CELL(abcABC):  188.97261   188.97261   188.97261    90.00000    90.00000    90.00000  Step:         356  Bead:       0 x_centroid{angstrom}  cell{atomic_unit}
       O  2.89677e+00  1.34152e+00  2.08264e+00
       H  3.42557e+00  1.46224e+00  1.32090e+00
2
# CELL(abcABC):  188.97261   188.97261   188.97261    90.00000    90.00000    90.00000  Step:         360  Bead:       0 x_centroid{angstrom}  cell{atomic_unit}
       O  2.89286e+00  1.34255e+00  2.08234e+00
       H  3.43275e+00  1.46725e+00  1.31877e+00
2
# CELL(abcABC):  188.97261   188.97261   188.97261    90.00000    90.00000    90.00000  Step:         364  Bead:       0 x_centroid{angstrom}  cell{atomic_unit}
       O  2.88889e+00  1.34359e+00  2.08192e+00
       H  3.44095e+00  1.47203e+00  1.31861e+00
2
# CELL(abcABC):  188.97261   188.97261   188.97261    90.00000    90.00000    90.00000  Step:         368  Bead:       0 x_centroid{angstrom}  cell{atomic_unit}
       O  2.88498e+00  1.34471e+00  2.08118e+00
       H  3.44896e+00  1.47537e+00  1.32344e+00
2
# CELL(abcABC):  188.97261   188.97261   188.97261    90.00000    90.00000    90.00000  Step:         372  Bead:       0 x_centroid{angstrom}  cell{atomic_unit}
       O  2.88121e+00  1.34594e+00  2.08004e+00
       H  3.45470e+00  1.47703e+00  1.33480e+00
2
# CELL(abcABC):  188.97261   188.97261   188.97261    90.00000    90.00000    90.00000  Step:         376  Bead:       0 x_centroid{angstrom}  cell{atomic_unit}
       O  2.87780e+00  1.34720e+00  2.07859e+00
       H  3.45591e+00  1.47764e+00  1.35101e+00
2
# CELL(abcABC):  188.97261   188.97261   188.97261    90.00000    90.00000    90.00000  Step:         380  Bead:       0 x_centroid{angstrom}  cell{atomic_unit}
       O  2.87462e+00  1.34848e+00  2.07710e+00
       H  3.45349e+00  1.47792e+00  1.36811e+00
2
# CELL(abcABC):  188.97261   188.97261   188.97261    90.00000    90.00000    90.00000  Step:         384  Bead:       0 x_centroid{angstrom}  cell{atomic_unit}
       O  2.87154e+00  1.34970e+00  2.07589e+00
       H  3.45070e+00  1.47871e+00  1.38081e+00
2
# CELL(abcABC):  188.97261   188.97261   188.97261    90.00000    90.00000    90.00000  Step:         388  Bead:       0 x_centroid{angstrom}  cell{atomic_unit}
       O  2.86830e+00  1.35082e+00  2.07514e+00
       H  3.45111e+00  1.48086e+00  1.38625e+00
2
# CELL(abcABC):  188.97261   188.97261   188.97261    90.00000    90.00000    90.00000  Step:         392  Bead:       0 x_centroid{angstrom}  cell{atomic_unit}
       O  2.86484e+00  1.35179e+00  2.07480e+00
       H  3.45573e+00  1.48511e+00  1.38522e+00
2
# CELL(abcABC):  188.97261   188.97261   188.97261    90.00000    90.00000    90.00000  Step:         396  Bead:       0 x_centroid{angstrom}  cell{atomic_unit}
       O  2.86116e+00  1.35263e+00  2.07468e+00
       H  3.46368e+00  1.49133e+00  1.38089e+00
2
# CELL(abcABC):  188.97261   188.97261   188.97261    90.00000    90.00000    90.00000  Step:         400  Bead:       0 x_centroid{angstrom}  cell{atomic_unit}
       O  2.85744e+00  1.35345e+00  2.07446e+00
       H  3.47182e+00  1.49825e+00  1.37797e+00
2
# CELL(abcABC):  188.97261   188.97261   188.97261    90.00000    90.00000    90.00000  Step:         404  Bead:       0 x_centroid{angstrom}  cell{atomic_unit}
       O  2.85382e+00  1.35431e+00  2.07396e+00
       H  3.47776e+00  1.50471e+00  1.37938e+00
2
# CELL(abcABC):  188.97261   188.97261   188.97261    90.00000    90.00000    90.00000  Step:         408  Bead:       0 x_centroid{angstrom}  cell{atomic_unit}
       O  2.85046e+00  1.35527e+00  2.07311e+00
       H  3.47970e+00  1.50945e+00  1.38634e+00
2
# CELL(abcABC):  188.97261   188.97261   188.97261    90.00000    90.00000    90.00000  Step:         412  Bead:       0 x_centroid{angstrom}  cell{atomic_unit}
       O  2.84742e+00  1.35638e+00  2.07190e+00
       H  3.47646e+00  1.51179e+00  1.39901e+00
2
# CELL(abcABC):  188.97261   188.97261   188.97261    90.00000    90.00000    90.00000  Step:         416  Bead:       0 x_centroid{angstrom}  cell{atomic_unit}
       O  2.84449e+00  1.35759e+00  2.07058e+00
       H  3.47128e+00  1.51280e+00  1.41345e+00
2
# CELL(abcABC):  188.97261   188.97261   188.97261    90.00000    90.00000    90.00000  Step:         420  Bead:       0 x_centroid{angstrom}  cell{atomic_unit}
       O  2.84135e+00  1.35878e+00  2.06944e+00
       H  3.46965e+00  1.51397e+00  1.42504e+00
2
# CELL(abcABC):  188.97261   188.97261   188.97261    90.00000    90.00000    90.00000  Step:         424  Bead:       0 x_centroid{angstrom}  cell{atomic_unit}
       O  2.83776e+00  1.35993e+00  2.06854e+00
       H  3.47463e+00  1.51593e+00  1.43291e+00
2
# CELL(abcABC):  188.97261   188.97261   188.97261    90.00000    90.00000    90.00000  Step:         428  Bead:       0 x_centroid{angstrom}  cell{atomic_unit}
       O  2.83391e+00  1.36108e+00  2.06775e+00
       H  3.48416e+00  1.51788e+00  1.43881e+00
2
# CELL(abcABC):  188.97261   188.97261   188.97261    90.00000    90.00000    90.00000  Step:         432  Bead:       0 x_centroid{angstrom}  cell{atomic_unit}
       O  2.82991e+00  1.36226e+00  2.06698e+00
       H  3.49526e+00  1.51954e+00  1.44441e+00
2
# CELL(abcABC):  188.97261   188.97261   188.97261    90.00000    90.00000    90.00000  Step:         436  Bead:       0 x_centroid{angstrom}  cell{atomic_unit}
       O  2.82587e+00  1.36344e+00  2.06629e+00
       H  3.50671e+00  1.52133e+00  1.44888e+00
2
# CELL(abcABC):  188.97261   188.97261   188.97261    90.00000    90.00000    90.00000  Step:         440  Bead:       0 x_centroid{angstrom}  cell{atomic_unit}
       O  2.82206e+00  1.36461e+00  2.06554e+00
       H  3.51539e+00  1.52303e+00  1.45424e+00
2
# CELL(abcABC):  188.97261   188.97261   188.97261    90.00000    90.00000    90.00000  Step:         444  Bead:       0 x_centroid{angstrom}  cell{atomic_unit}
       O  2.81856e+00  1.36576e+00  2.06458e+00
       H  3.51870e+00  1.52512e+00  1.46289e+00
2
# CELL(abcABC):  188.97261   188.97261   188.97261    90.00000    90.00000    90.00000  Step:         448  Bead:       0 x_centroid{angstrom}  cell{atomic_unit}
       O  2.81543e+00  1.36687e+00  2.06343e+00
       H  3.51664e+00  1.52772e+00  1.47452e+00
2
# CELL(abcABC):  188.97261   188.97261   188.97261    90.00000    90.00000    90.00000  Step:         452  Bead:       0 x_centroid{angstrom}  cell{atomic_unit}
       O  2.81250e+00  1.36798e+00  2.06221e+00
       H  3.51099e+00  1.53034e+00  1.48731e+00
2
# CELL(abcABC):  188.97261   188.97261   188.97261    90.00000    90.00000    90.00000  Step:         456  Bead:       0 x_centroid{angstrom}  cell{atomic_unit}
       O  2.80953e+00  1.36912e+00  2.06112e+00
       H  3.50548e+00  1.53278e+00  1.49807e+00
2
# CELL(abcABC):  188.97261   188.97261   188.97261    90.00000    90.00000    90.00000  Step:         460  Bead:       0 x_centroid{angstrom}  cell{atomic_unit}
       O  2.80628e+00  1.37023e+00  2.06037e+00