2
# CELL(abcABC):  188.97261   188.97261   188.97261    90.00000    90.00000    90.00000  Step:           0  Bead:       0 v_centroid{atomic_unit}  cell{atomic_unit}
       O -1.63538e-04  5.74626e-05  2.69356e-07
       H  4.00902e-05  8.41361e-05 -3.26540e-04
2
# CELL(abcABC):  188.97261   188.97261   188.97261    90.00000    90.00000    90.00000  Step:           4  Bead:       0 v_centroid{atomic_unit}  cell{atomic_unit}
       O -1.52933e-04  4.94000e-05 -9.67476e-06
       H -8.85100e-06  1.65576e-04 -1.53639e-04
2
# CELL(abcABC):  188.97261   188.97261   188.97261    90.00000    90.00000    90.00000  Step:           8  Bead:       0 v_centroid{atomic_unit}  cell{atomic_unit}
       O -1.46526e-04  4.42596e-05 -2.40128e-05
       H -8.68982e-05  2.37953e-04  7.69349e-05
2
# CELL(abcABC):  188.97261   188.97261   188.97261    90.00000    90.00000    90.00000  Step:          12  Bead:       0 v_centroid{atomic_unit}  cell{atomic_unit}
       O -1.42311e-04  4.48510e-05 -3.31536e-05
       H -1.49126e-04  2.26742e-04  2.22621e-04
2
# CELL(abcABC):  188.97261   188.97261   188.97261    90.00000    90.00000    90.00000  Step:          16  Bead:       0 v_centroid{atomic_unit}  cell{atomic_unit}
       O -1.43090e-04  5.11814e-05 -4.06847e-05
       H -1.76560e-04  1.41774e-04  3.37146e-04
2
# CELL(abcABC):  188.97261   188.97261   188.97261    90.00000    90.00000    90.00000  Step:          20  Bead:       0 v_centroid{atomic_unit}  cell{atomic_unit}
       O -1.43428e-04  5.81985e-05 -4.64883e-05
       H -1.83709e-04  3.52652e-05  4.27691e-04
2
# CELL(abcABC):  188.97261   188.97261   188.97261    90.00000    90.00000    90.00000  Step:          24  Bead:       0 v_centroid{atomic_unit}  cell{atomic_unit}
       O -1.48240e-04  6.19285e-05 -4.27661e-05
       H -1.20570e-04 -1.87821e-05  3.66938e-04
2
# CELL(abcABC):  188.97261   188.97261   188.97261    90.00000    90.00000    90.00000  Step:          28  Bead:       0 v_centroid{atomic_unit}  cell{atomic_unit}
       O -1.50319e-04  6.03796e-05 -3.21320e-05
       H -2.12202e-05 -2.00594e-05  2.06505e-04
2
# CELL(abcABC):  188.97261   188.97261   188.97261    90.00000    90.00000    90.00000  Step:          32  Bead:       0 v_centroid{atomic_unit}  cell{atomic_unit}
       O -1.57668e-04  5.97226e-05 -2.01211e-05
       H  5.28152e-05  6.98426e-06  1.04772e-05
2
# CELL(abcABC):  188.97261   188.97261   188.97261    90.00000    90.00000    90.00000  Step:          36  Bead:       0 v_centroid{atomic_unit}  cell{atomic_unit}
       O -1.58863e-04  5.61993e-05 -5.34726e-06
       H  7.77713e-05  6.05786e-05 -2.23279e-04
2
# CELL(abcABC):  188.97261   188.97261   188.97261    90.00000    90.00000    90.00000  Step:          40  Bead:       0 v_centroid{atomic_unit}  cell{atomic_unit}
       O -1.55047e-04  5.00347e-05  2.21556e-06
       H  3.30862e-05  1.52239e-04 -3.41323e-04
2
# CELL(abcABC):  188.97261   188.97261   188.97261    90.00000    90.00000    90.00000  Step:          44  Bead:       0 v_centroid{atomic_unit}  cell{atomic_unit}
       O -1.48009e-04  4.63219e-05 -5.56850e-06
       H -8.14146e-05  2.12259e-04 -2.18115e-04
2
# CELL(abcABC):  188.97261   188.97261   188.97261    90.00000    90.00000    90.00000  Step:          48  Bead:       0 v_centroid{atomic_unit}  cell{atomic_unit}
       O -1.42661e-04  4.98083e-05 -2.27033e-05
       H -1.91842e-04  1.66869e-04  5.06536e-05
2
# CELL(abcABC):  188.97261   188.97261   188.97261    90.00000    90.00000    90.00000  Step:          52  Bead:       0 v_centroid{atomic_unit}  cell{atomic_unit}
       O -1.38098e-04  5.45993e-05 -3.69467e-05
       H -2.50721e-04  8.55367e-05  2.78452e-04
2
# CELL(abcABC):  188.97261   188.97261   188.97261    90.00000    90.00000    90.00000  Step:          56  Bead:       0 v_centroid{atomic_unit}  cell{atomic_unit}
       O -1.37986e-04  5.70714e-05 -4.48154e-05
       H -2.63062e-04  5.04184e-05  4.02022e-04
2
# CELL(abcABC):  188.97261   188.97261   188.97261    90.00000    90.00000    90.00000  Step:          60  Bead:       0 v_centroid{atomic_unit}  cell{atomic_unit}
       O -1.47246e-04  5.84340e-05 -4.25393e-05
       H -2.02214e-04  6.23653e-05  3.55031e-04
2
# CELL(abcABC):  188.97261   188.97261   188.97261    90.00000    90.00000    90.00000  Step:          64  Bead:       0 v_centroid{atomic_unit}  cell{atomic_unit}
       O -1.60474e-04  6.00715e-05 -3.26488e-05
       H -6.76198e-05  6.57555e-05  1.88532e-04
2
# CELL(abcABC):  188.97261   188.97261   188.97261    90.00000    90.00000    90.00000  Step:          68  Bead:       0 v_centroid{atomic_unit}  cell{atomic_unit}
       O -1.66001e-04  6.19631e-05 -2.53289e-05
       H  1.70874e-05  3.69044e-05  7.19598e-05
2
# CELL(abcABC):  188.97261   188.97261   188.97261    90.00000    90.00000    90.00000  Step:          72  Bead:       0 v_centroid{atomic_unit}  cell{atomic_unit}
       O -1.64295e-04  6.22651e-05 -1.56226e-05
       H  4.34342e-05  1.12864e-05 -7.53748e-05
2
# CELL(abcABC):  188.97261   188.97261   188.97261    90.00000    90.00000    90.00000  Step:          76  Bead:       0 v_centroid{atomic_unit}  cell{atomic_unit}
       O -1.63120e-04  5.91092e-05 -4.63340e-06
       H  3.64316e-05  5.68404e-05 -2.48342e-04
2
# CELL(abcABC):  188.97261   188.97261   188.97261    90.00000    90.00000    90.00000  Step:          80  Bead:       0 v_centroid{atomic_unit}  cell{atomic_unit}
       O -1.66676e-04  5.69958e-05  4.12389e-06
       H  5.33462e-05  1.05802e-04 -3.92336e-04
2
# CELL(abcABC):  188.97261   188.97261   188.97261    90.00000    90.00000    90.00000  Step:          84  Bead:       0 v_centroid{atomic_unit}  cell{atomic_unit}
       O -1.68437e-04  5.55156e-05  2.55528e-06
       H  8.03582e-05  1.29660e-04 -3.67554e-04
2
# CELL(abcABC):  188.97261   188.97261   188.97261    90.00000    90.00000    90.00000  Step:          88  Bead:       0 v_centroid{atomic_unit}  cell{atomic_unit}
       O -1.68205e-04  5.37283e-05 -7.80315e-06
       H  7.78363e-05  1.57581e-04 -2.02986e-04
2
# CELL(abcABC):  188.97261   188.97261   188.97261    90.00000    90.00000    90.00000  Step:          92  Bead:       0 v_centroid{atomic_unit}  cell{atomic_unit}
       O -1.72538e-04  5.27587e-05 -1.61860e-05
       H  9.37253e-05  1.93587e-04 -7.65904e-05
2
# CELL(abcABC):  188.97261   188.97261   188.97261    90.00000    90.00000    90.00000  Step:          96  Bead:       0 v_centroid{atomic_unit}  cell{atomic_unit}
       O -1.74043e-04  5.05240e-05 -1.79973e-05
       H  1.20238e-04  2.28035e-04 -4.75079e-05
2
# CELL(abcABC):  188.97261   188.97261   188.97261    90.00000    90.00000    90.00000  Step:         100  Bead:       0 v_centroid{atomic_unit}  cell{atomic_unit}
       O -1.70854e-04  5.11318e-05 -2.67515e-05
       H  6.95724e-05  2.18407e-04  9.14450e-05
2
# CELL(abcABC):  188.97261   188.97261   188.97261    90.00000    90.00000    90.00000  Step:         104  Bead:       0 v_centroid{atomic_unit}  cell{atomic_unit}
       O -1.67382e-04  5.42666e-05 -3.64032e-05
       H -1.81766e-05  1.81367e-04  2.40535e-04
2
# CELL(abcABC):  188.97261   188.97261   188.97261    90.00000    90.00000    90.00000  Step:         108  Bead:       0 v_centroid{atomic_unit}  cell{atomic_unit}
       O -1.63680e-04  5.84104e-05 -3.36782e-05
       H -8.12358e-05  1.17268e-04  1.96738e-04
2
# CELL(abcABC):  188.97261   188.97261   188.97261    90.00000    90.00000    90.00000  Step:         112  Bead:       0 v_centroid{atomic_unit}  cell{atomic_unit}
       O -1.63061e-04  6.18496e-05 -2.76790e-05
       H -9.58254e-05  6.45353e-05  1.00910e-04
2
# CELL(abcABC):  188.97261   188.97261   188.97261    90.00000    90.00000    90.00000  Step:         116  Bead:       0 v_centroid{atomic_unit}  cell{atomic_unit}
       O -1.71148e-04  6.53484e-05 -2.17778e-05
       H -5.09792e-05  4.15530e-05 -3.29360e-06
2
# CELL(abcABC):  188.97261   188.97261   188.97261    90.00000    90.00000    90.00000  Step:         120  Bead:       0 v_centroid{atomic_unit}  cell{atomic_unit}
       O -1.82483e-04  6.73220e-05 -1.33572e-05
       H  3.57411e-05  4.65563e-05 -1.48709e-04
2
# CELL(abcABC):  188.97261   188.97261   188.97261    90.00000    90.00000    90.00000  Step:         124  Bead:       0 v_centroid{atomic_unit}  cell{atomic_unit}
       O -1.86457e-04  6.51814e-05 -8.04850e-06
       H  1.25767e-04  7.00327e-05 -2.29579e-04
2
# CELL(abcABC):  188.97261   188.97261   188.97261    90.00000    90.00000    90.00000  Step:         128  Bead:       0 v_centroid{atomic_unit}  cell{atomic_unit}
       O -1.83094e-04  6.11047e-05 -1.32713e-05
       H  1.14874e-04  1.18177e-04 -1.41317e-04
2
# CELL(abcABC):  188.97261   188.97261   188.97261    90.00000    90.00000    90.00000  Step:         132  Bead:       0 v_centroid{atomic_unit}  cell{atomic_unit}
       O -1.79355e-04  5.79386e-05 -3.02176e-05
       H  9.94158e-07  1.89690e-04  1.20803e-04
2
# CELL(abcABC):  188.97261   188.97261   188.97261    90.00000    90.00000    90.00000  Step:         136  Bead:       0 v_centroid{atomic_unit}  cell{atomic_unit}
       O -1.73584e-04  5.51272e-05 -5.18519e-05
       H -1.42800e-04  2.54659e-04  4.57631e-04
2
# CELL(abcABC):  188.97261   188.97261   188.97261    90.00000    90.00000    90.00000  Step:         140  Bead:       0 v_centroid{atomic_unit}  cell{atomic_unit}
       O -1.64442e-04  5.41174e-05 -6.80818e-05
       H -2.82757e-04  2.68676e-04  7.15905e-04
2
# CELL(abcABC):  188.97261   188.97261   188.97261    90.00000    90.00000    90.00000  Step:         144  Bead:       0 v_centroid{atomic_unit}  cell{atomic_unit}
       O -1.57592e-04  5.64300e-05 -6.98396e-05
       H -3.68222e-04  2.22904e-04  7.46738e-04
2
# CELL(abcABC):  188.97261   188.97261   188.97261    90.00000    90.00000    90.00000  Step:         148  Bead:       0 v_centroid{atomic_unit}  cell{atomic_unit}
       O -1.62533e-04  6.15439e-05 -5.36997e-05
       H -3.43702e-04  1.62740e-04  4.83748e-04
2
# CELL(abcABC):  188.97261   188.97261   188.97261    90.00000    90.00000    90.00000  Step:         152  Bead:       0 v_centroid{atomic_unit}  cell{atomic_unit}
       O -1.72468e-04  6.26844e-05 -3.21243e-05
       H -1.82452e-04  1.43254e-04  1.41722e-04
2
# CELL(abcABC):  188.97261   188.97261   188.97261    90.00000    90.00000    90.00000  Step:         156  Bead:       0 v_centroid{atomic_unit}  cell{atomic_unit}
       O -1.83368e-04  6.33547e-05 -1.69741e-05
       H -3.69310e-05  1.43336e-04 -1.02232e-04
2
# CELL(abcABC):  188.97261   188.97261   188.97261    90.00000    90.00000    90.00000  Step:         160  Bead:       0 v_centroid{atomic_unit}  cell{atomic_unit}
       O -1.84951e-04  6.11977e-05 -7.92924e-06
       H  3.61996e-05  1.58863e-04 -2.39751e-04
2
# CELL(abcABC):  188.97261   188.97261   188.97261    90.00000    90.00000    90.00000  Step:         164  Bead:       0 v_centroid{atomic_unit}  cell{atomic_unit}
       O -1.86564e-04  6.00810e-05 -3.59110e-06
       H  9.11077e-05  1.65166e-04 -3.04918e-04
2
# CELL(abcABC):  188.97261   188.97261   188.97261    90.00000    90.00000    90.00000  Step:         168  Bead:       0 v_centroid{atomic_unit}  cell{atomic_unit}
       O -1.84003e-04  6.04562e-05 -7.83936e-06
       H  5.91506e-05  1.55817e-04 -2.36386e-04
2
# CELL(abcABC):  188.97261   188.97261   188.97261    90.00000    90.00000    90.00000  Step:         172  Bead:       0 v_centroid{atomic_unit}  cell{atomic_unit}
       O -1.71193e-04  6.04038e-05 -1.70345e-05
       H -7.42794e-05  1.29401e-04 -8.16137e-05
2
# CELL(abcABC):  188.97261   188.97261   188.97261    90.00000    90.00000    90.00000  Step:         176  Bead:       0 v_centroid{atomic_unit}  cell{atomic_unit}
       O -1.64357e-04  6.35104e-05 -2.06081e-05
       H -2.34437e-04  1.00217e-04 -3.14001e-05
2
# CELL(abcABC):  188.97261   188.97261   188.97261    90.00000    90.00000    90.00000  Step:         180  Bead:       0 v_centroid{atomic_unit}  cell{atomic_unit}
       O -1.55617e-04  6.46080e-05 -1.39590e-05
       H -3.42925e-04  7.10096e-05 -1.33131e-04
2
# CELL(abcABC):  188.97261   188.97261   188.97261    90.00000    90.00000    90.00000  Step:         184  Bead:       0 v_centroid{atomic_unit}  cell{atomic_unit}
       O -1.52700e-04  6.49114e-05 -1.33381e-06
       H -3.59021e-04  5.44160e-05 -3.29726e-04
2
# CELL(abcABC):  188.97261   188.97261   188.97261    90.00000    90.00000    90.00000  Step:         188  Bead:       0 v_centroid{atomic_unit}  cell{atomic_unit}
       O -1.56080e-04  6.73841e-05  2.96141e-06
       H -3.48746e-04  3.20775e-05 -4.03376e-04
2
# CELL(abcABC):  188.97261   188.97261   188.97261    90.00000    90.00000    90.00000  Step:         192  Bead:       0 v_centroid{atomic_unit}  cell{atomic_unit}
       O -1.56047e-04  6.60145e-05 -7.39342e-06
       H -3.43921e-04  5.17282e-05 -2.38334e-04
2
# CELL(abcABC):  188.97261   188.97261   188.97261    90.00000    90.00000    90.00000  Step:         196  Bead:       0 v_centroid{atomic_unit}  cell{atomic_unit}
       O -1.52850e-04  5.74377e-05 -1.82977e-05
       H -2.57960e-04  1.34585e-04 -4.80089e-05
2
# CELL(abcABC):  188.97261   188.97261   188.97261    90.00000    90.00000    90.00000  Step:         200  Bead:       0 v_centroid{atomic_unit}  cell{atomic_unit}
       O -1.60324e-04  5.02772e-05 -2.73505e-05
       H -1.32305e-04  2.45513e-04  9.65730e-05
2
# CELL(abcABC):  188.97261   188.97261   188.97261    90.00000    90.00000    90.00000  Step:         204  Bead:       0 v_centroid{atomic_unit}  cell{atomic_unit}
       O -1.65411e-04  4.54226e-05 -3.62203e-05
       H -2.31620e-05  3.11500e-04  2.40948e-04
2
# CELL(abcABC):  188.97261   188.97261   188.97261    90.00000    90.00000    90.00000  Step:         208  Bead:       0 v_centroid{atomic_unit}  cell{atomic_unit}
       O -1.66654e-04  4.53311e-05 -3.82623e-05
       H  1.97093e-05  3.03930e-04  2.76280e-04
2
# CELL(abcABC):  188.97261   188.97261   188.97261    90.00000    90.00000    90.00000  Step:         212  Bead:       0 v_centroid{atomic_unit}  cell{atomic_unit}
       O -1.65664e-04  5.01472e-05 -2.88105e-05
       H -1.78348e-05  2.35996e-04  1.23494e-04
2
# CELL(abcABC):  188.97261   188.97261   188.97261    90.00000    90.00000    90.00000  Step:         216  Bead:       0 v_centroid{atomic_unit}  cell{atomic_unit}
       O -1.52118e-04  5.43212e-05 -1.14738e-05
       H -1.44085e-04  1.35132e-04 -1.40503e-04
2
# CELL(abcABC):  188.97261   188.97261   188.97261    90.00000    90.00000    90.00000  Step:         220  Bead:       0 v_centroid{atomic_unit}  cell{atomic_unit}
       O -1.44946e-04  5.76800e-05 -8.04645e-06
       H -3.03920e-04  9.97450e-05 -2.00706e-04
2
# CELL(abcABC):  188.97261   188.97261   188.97261    90.00000    90.00000    90.00000  Step:         224  Bead:       0 v_centroid{atomic_unit}  cell{atomic_unit}
       O -1.36524e-04  5.64438e-05 -1.48229e-05
       H -4.12508e-04  1.09587e-04 -8.99765e-05
2
# CELL(abcABC):  188.97261   188.97261   188.97261    90.00000    90.00000    90.00000  Step:         228  Bead:       0 v_centroid{atomic_unit}  cell{atomic_unit}
       O -1.32049e-04  5.22196e-05 -2.49372e-05
       H -4.12722e-04  1.49031e-04  7.95016e-05
2
# CELL(abcABC):  188.97261   188.97261   188.97261    90.00000    90.00000    90.00000  Step:         232  Bead:       0 v_centroid{atomic_unit}  cell{atomic_unit}
       O -1.37091e-04  4.66194e-05 -3.06330e-05
       H -2.60540e-04  2.09803e-04  1.79009e-04
2
# CELL(abcABC):  188.97261   188.97261   188.97261    90.00000    90.00000    90.00000  Step:         236  Bead:       0 v_centroid{atomic_unit}  cell{atomic_unit}
       O -1.56285e-04  4.37158e-05 -2.98426e-05
       H -3.97426e-06  2.74645e-04  1.60397e-04
2
# CELL(abcABC):  188.97261   188.97261   188.97261    90.00000    90.00000    90.00000  Step:         240  Bead:       0 v_centroid{atomic_unit}  cell{atomic_unit}
       O -1.63238e-04  3.99972e-05 -2.92126e-05
       H  1.89898e-04  3.01125e-04  1.60925e-04
2
# CELL(abcABC):  188.97261   188.97261   188.97261    90.00000    90.00000    90.00000  Step:         244  Bead:       0 v_centroid{atomic_unit}  cell{atomic_unit}
       O -1.72944e-04  4.01881e-05 -2.78356e-05
       H  3.33029e-04  3.02351e-04  1.37691e-04
2
# CELL(abcABC):  188.97261   188.97261   188.97261    90.00000    90.00000    90.00000  Step:         248  Bead:       0 v_centroid{atomic_unit}  cell{atomic_unit}
       O -1.76091e-04  4.29820e-05 -2.04225e-05
       H  3.87991e-04  2.56054e-04  2.06508e-05
2
# CELL(abcABC):  188.97261   188.97261   188.97261    90.00000    90.00000    90.00000  Step:         252  Bead:       0 v_centroid{atomic_unit}  cell{atomic_unit}
       O -1.71645e-04  4.70490e-05 -1.90985e-05
       H  3.22867e-04  1.89373e-04  3.20965e-07
2
# CELL(abcABC):  188.97261   188.97261   188.97261    90.00000    90.00000    90.00000  Step:         256  Bead:       0 v_centroid{atomic_unit}  cell{atomic_unit}
       O -1.66639e-04  5.19278e-05 -1.82194e-05
       H  1.88821e-04  1.33204e-04 -2.05156e-05
2
# CELL(abcABC):  188.97261   188.97261   188.97261    90.00000    90.00000    90.00000  Step:         260  Bead:       0 v_centroid{atomic_unit}  cell{atomic_unit}
       O -1.61155e-04  5.67319e-05 -1.64553e-05
       H  5.38607e-05  7.56225e-05 -5.45576e-05
2
# CELL(abcABC):  188.97261   188.97261   188.97261    90.00000    90.00000    90.00000  Step:         264  Bead:       0 v_centroid{atomic_unit}  cell{atomic_unit}
       O -1.58302e-04  5.58184e-05 -1.67851e-05
       H  2.45090e-05  8.39131e-05 -4.73139e-05
2
# CELL(abcABC):  188.97261   188.97261   188.97261    90.00000    90.00000    90.00000  Step:         268  Bead:       0 v_centroid{atomic_unit}  cell{atomic_unit}
       O -1.61322e-04  5.01826e-05 -1.60109e-05
       H  6.41083e-05  1.76623e-04 -6.06545e-05
2
# CELL(abcABC):  188.97261   188.97261   188.97261    90.00000    90.00000    90.00000  Step:         272  Bead:       0 v_centroid{atomic_unit}  cell{atomic_unit}
       O -1.61747e-04  4.11947e-05 -1.59241e-05
       H  1.02120e-04  3.07107e-04 -5.80905e-05
2
# CELL(abcABC):  188.97261   188.97261   188.97261    90.00000    90.00000    90.00000  Step:         276  Bead:       0 v_centroid{atomic_unit}  cell{atomic_unit}
       O -1.70878e-04  3.90488e-05 -1.33295e-05
       H  1.74328e-04  3.69518e-04 -1.08446e-04
2
# CELL(abcABC):  188.97261   188.97261   188.97261    90.00000    90.00000    90.00000  Step:         280  Bead:       0 v_centroid{atomic_unit}  cell{atomic_unit}
       O -1.75346e-04  4.19780e-05 -1.13164e-05
       H  2.31969e-04  3.28197e-04 -1.42075e-04
2
# CELL(abcABC):  188.97261   188.97261   188.97261    90.00000    90.00000    90.00000  Step:         284  Bead:       0 v_centroid{atomic_unit}  cell{atomic_unit}
       O -1.74770e-04  4.94023e-05 -1.55402e-05
       H  2.07908e-04  2.16169e-04 -7.69117e-05
2
# CELL(abcABC):  188.97261   188.97261   188.97261    90.00000    90.00000    90.00000  Step:         288  Bead:       0 v_centroid{atomic_unit}  cell{atomic_unit}
       O -1.68030e-04  5.46235e-05 -2.68561e-05
       H  1.44713e-04  1.16219e-04  1.08232e-04
2
# CELL(abcABC):  188.97261   188.97261   188.97261    90.00000    90.00000    90.00000  Step:         292  Bead:       0 v_centroid{atomic_unit}  cell{atomic_unit}
       O -1.64396e-04  5.69021e-05 -4.17471e-05
       H  7.37301e-05  8.52325e-05  3.42926e-04
2
# CELL(abcABC):  188.97261   188.97261   188.97261    90.00000    90.00000    90.00000  Step:         296  Bead:       0 v_centroid{atomic_unit}  cell{atomic_unit}
       O -1.56970e-04  5.43926e-05 -5.16295e-05
       H -1.07098e-05  1.12033e-04  5.04008e-04
2
# CELL(abcABC):  188.97261   188.97261   188.97261    90.00000    90.00000    90.00000  Step:         300  Bead:       0 v_centroid{atomic_unit}  cell{atomic_unit}
       O -1.50528e-04  4.65352e-05 -5.48591e-05
       H -7.48272e-05  2.21888e-04  5.60082e-04
2
# CELL(abcABC):  188.97261   188.97261   188.97261    90.00000    90.00000    90.00000  Step:         304  Bead:       0 v_centroid{atomic_unit}  cell{atomic_unit}
       O -1.46064e-04  3.68743e-05 -5.16298e-05
       H -9.05787e-05  3.53758e-04  5.15771e-04
2
# CELL(abcABC):  188.97261   188.97261   188.97261    90.00000    90.00000    90.00000  Step:         308  Bead:       0 v_centroid{atomic_unit}  cell{atomic_unit}
       O -1.51961e-04  3.08902e-05 -3.87355e-05
       H -3.25394e-05  4.62610e-04  3.06610e-04
2
# CELL(abcABC):  188.97261   188.97261   188.97261    90.00000    90.00000    90.00000  Step:         312  Bead:       0 v_centroid{atomic_unit}  cell{atomic_unit}
       O -1.58933e-04  2.73224e-05 -1.86672e-05
       H  6.82492e-05  5.23094e-04 -1.31858e-05
2
# CELL(abcABC):  188.97261   188.97261   188.97261    90.00000    90.00000    90.00000  Step:         316  Bead:       0 v_centroid{atomic_unit}  cell{atomic_unit}
       O -1.67836e-04  3.02703e-05 -1.04393e-06
       H  2.29111e-04  4.68683e-04 -2.90463e-04
2
# CELL(abcABC):  188.97261   188.97261   188.97261    90.00000    90.00000    90.00000  Step:         320  Bead:       0 v_centroid{atomic_unit}  cell{atomic_unit}
       O -1.78800e-04  3.90917e-05  8.49960e-06
       H  4.14968e-04  3.24053e-04 -4.40461e-04
2
# CELL(abcABC):  188.97261   188.97261   188.97261    90.00000    90.00000    90.00000  Step:         324  Bead:       0 v_centroid{atomic_unit}  cell{atomic_unit}
       O -1.90747e-04  4.97681e-05  4.00865e-06
       H  5.17157e-04  1.88669e-04 -3.80201e-04
2
# CELL(abcABC):  188.97261   188.97261   188.97261    90.00000    90.00000    90.00000  Step:         328  Bead:       0 v_centroid{atomic_unit}  cell{atomic_unit}
       O -1.81199e-04  5.49903e-05 -1.88473e-05
       H  3.99329e-04  9.26280e-05 -1.31479e-05
2
# CELL(abcABC):  188.97261   188.97261   188.97261    90.00000    90.00000    90.00000  Step:         332  Bead:       0 v_centroid{atomic_unit}  cell{atomic_unit}
       O -1.71163e-04  5.73697e-05 -4.57274e-05
       H  2.19597e-04  6.28184e-05  4.10956e-04
2
# CELL(abcABC):  188.97261   188.97261   188.97261    90.00000    90.00000    90.00000  Step:         336  Bead:       0 v_centroid{atomic_unit}  cell{atomic_unit}
       O -1.63828e-04  5.57913e-05 -6.32415e-05
       H  6.82051e-05  1.01503e-04  6.84555e-04
2
# CELL(abcABC):  188.97261   188.97261   188.97261    90.00000    90.00000    90.00000  Step:         340  Bead:       0 v_centroid{atomic_unit}  cell{atomic_unit}
       O -1.56393e-04  5.26269e-05 -6.22630e-05
       H -3.55157e-05  1.46160e-04  6.70825e-04
2
# CELL(abcABC):  188.97261   188.97261   188.97261    90.00000    90.00000    90.00000  Step:         344  Bead:       0 v_centroid{atomic_unit}  cell{atomic_unit}
       O -1.56294e-04  5.06978e-05 -4.75145e-05
       H -4.94504e-05  1.81603e-04  4.35157e-04
2
# CELL(abcABC):  188.97261   188.97261   188.97261    90.00000    90.00000    90.00000  Step:         348  Bead:       0 v_centroid{atomic_unit}  cell{atomic_unit}
       O -1.64646e-04  4.81125e-05 -3.04198e-05
       H  4.87334e-05  2.36044e-04  1.59471e-04
2
# CELL(abcABC):  188.97261   188.97261   188.97261    90.00000    90.00000    90.00000  Step:         352  Bead:       0 v_centroid{atomic_unit}  cell{atomic_unit}
       O -1.68644e-04  4.56613e-05 -1.72122e-05
       H  1.89651e-04  2.44762e-04 -4.04121e-05
2
# CELL(abcABC):  188.97261   188.97261   188.97261    90.00000    90.00000    90.00000  Step:         356  Bead:       0 v_centroid{atomic_unit}  cell{atomic_unit}
       O -1.74248e-04  4.65418e-05 -1.29428e-05
       H  2.90322e-04  2.26217e-04 -1.06704e-04
2
# CELL(abcABC):  188.97261   188.97261   188.97261    90.00000    90.00000    90.00000  Step:         360  Bead:       0 v_centroid{atomic_unit}  cell{atomic_unit}
       O -1.80507e-04  4.69975e-05 -1.51529e-05
       H  3.58198e-04  2.31254e-04 -7.55920e-05
2
# CELL(abcABC):  188.97261   188.97261   188.97261    90.00000    90.00000    90.00000  Step:         364  Bead:       0 v_centroid{atomic_unit}  cell{atomic_unit}
       O -1.82762e-04  4.95424e-05 -2.56392e-05
       H  3.85079e-04  1.94331e-04  8.97370e-05
2
# CELL(abcABC):  188.97261   188.97261   188.97261    90.00000    90.00000    90.00000  Step:         368  Bead:       0 v_centroid{atomic_unit}  cell{atomic_unit}
       O -1.75941e-04  5.34035e-05 -4.25668e-05
       H  3.33841e-04  1.10808e-04  3.65629e-04
2
# CELL(abcABC):  188.97261   188.97261   188.97261    90.00000    90.00000    90.00000  Step:         372  Bead:       0 v_centroid{atomic_unit}  cell{atomic_unit}
       O -1.63739e-04  5.70060e-05 -6.05492e-05
       H  1.61700e-04  4.52279e-05  6.53785e-04
2
# CELL(abcABC):  188.97261   188.97261   188.97261    90.00000    90.00000    90.00000  Step:         376  Bead:       0 v_centroid{atomic_unit}  cell{atomic_unit}
       O -1.49684e-04  5.83233e-05 -6.91874e-05
       H -4.10586e-05  1.63892e-05  7.93468e-04
2
# CELL(abcABC):  188.97261   188.97261   188.97261    90.00000    90.00000    90.00000  Step:         380  Bead:       0 v_centroid{atomic_unit}  cell{atomic_unit}
       O -1.41160e-04  5.76309e-05 -6.40881e-05
       H -1.50396e-04  1.72544e-05  7.15800e-04
2
# CELL(abcABC):  188.97261   188.97261   188.97261    90.00000    90.00000    90.00000  Step:         384  Bead:       0 v_centroid{atomic_unit}  cell{atomic_unit}
       O -1.43418e-04  5.37690e-05 -4.52130e-05
       H -7.13215e-05  6.17047e-05  4.21639e-04
2
# CELL(abcABC):  188.97261   188.97261   188.97261    90.00000    90.00000    90.00000  Step:         388  Bead:       0 v_centroid{atomic_unit}  cell{atomic_unit}
       O -1.54221e-04  4.83672e-05 -2.40430e-05
       H  1.13479e-04  1.42258e-04  8.72784e-05
2
# CELL(abcABC):  188.97261   188.97261   188.97261    90.00000    90.00000    90.00000  Step:         392  Bead:       0 v_centroid{atomic_unit}  cell{atomic_unit}
       O -1.65622e-04  4.12401e-05 -8.50901e-06
       H  3.08072e-04  2.50082e-04 -1.57581e-04
2
# CELL(abcABC):  188.97261   188.97261   188.97261    90.00000    90.00000    90.00000  Step:         396  Bead:       0 v_centroid{atomic_unit}  cell{atomic_unit}
       O -1.69911e-04  3.72813e-05 -6.13690e-06
       H  3.89335e-04  3.07781e-04 -1.93571e-04
2
# CELL(abcABC):  188.97261   188.97261   188.97261    90.00000    90.00000    90.00000  Step:         400  Bead:       0 v_centroid{atomic_unit}  cell{atomic_unit}
       O -1.69559e-04  3.79168e-05 -1.56956e-05
       H  3.35870e-04  3.16353e-04 -4.78790e-05
2
# CELL(abcABC):  188.97261   188.97261   188.97261    90.00000    90.00000    90.00000  Step:         404  Bead:       0 v_centroid{atomic_unit}  cell{atomic_unit}
       O -1.61455e-04  4.13307e-05 -3.04107e-05
       H  1.96440e-04  2.66375e-04  1.84337e-04
2
# CELL(abcABC):  188.97261   188.97261   188.97261    90.00000    90.00000    90.00000  Step:         408  Bead:       0 v_centroid{atomic_unit}  cell{atomic_unit}
       O -1.43009e-04  4.67324e-05 -4.70198e-05
       H -3.67117e-05  1.57378e-04  4.55501e-04
2
# CELL(abcABC):  188.97261   188.97261   188.97261    90.00000    90.00000    90.00000  Step:         412  Bead:       0 v_centroid{atomic_unit}  cell{atomic_unit}
       O -1.34084e-04  5.37957e-05 -6.01824e-05
       H -2.28100e-04  6.46420e-05  6.58167e-04
2
# CELL(abcABC):  188.97261   188.97261   188.97261    90.00000    90.00000    90.00000  Step:         416  Bead:       0 v_centroid{atomic_unit}  cell{atomic_unit}
       O -1.36262e-04  5.54796e-05 -5.75791e-05
       H -1.95273e-04  3.85926e-05  6.16624e-04
2
# CELL(abcABC):  188.97261   188.97261   188.97261    90.00000    90.00000    90.00000  Step:         420  Bead:       0 v_centroid{atomic_unit}  cell{atomic_unit}
       O -1.54111e-04  5.34427e-05 -4.66488e-05
       H  7.51940e-05  7.59331e-05  4.41502e-04
2
# CELL(abcABC):  188.97261   188.97261   188.97261    90.00000    90.00000    90.00000  Step:         424  Bead:       0 v_centroid{atomic_unit}  cell{atomic_unit}
       O -1.72166e-04  5.22990e-05 -3.75122e-05
       H  3.57731e-04  9.56711e-05  2.95963e-04
2
# CELL(abcABC):  188.97261   188.97261   188.97261    90.00000    90.00000    90.00000  Step:         428  Bead:       0 v_centroid{atomic_unit}  cell{atomic_unit}
       O -1.80649e-04  5.32517e-05 -3.54024e-05
       H  4.89921e-04  8.15090e-05  2.62162e-04
2
# CELL(abcABC):  188.97261   188.97261   188.97261    90.00000    90.00000    90.00000  Step:         432  Bead:       0 v_centroid{atomic_unit}  cell{atomic_unit}
       O -1.85251e-04  5.44803e-05 -3.39069e-05
       H  5.25063e-04  7.67817e-05  2.33644e-04
2
# CELL(abcABC):  188.97261   188.97261   188.97261    90.00000    90.00000    90.00000  Step:         436  Bead:       0 v_centroid{atomic_unit}  cell{atomic_unit}
       O -1.79493e-04  5.30642e-05 -3.12985e-05
       H  4.83925e-04  7.96720e-05  1.98576e-04
2
# CELL(abcABC):  188.97261   188.97261   188.97261    90.00000    90.00000    90.00000  Step:         440  Bead:       0 v_centroid{atomic_unit}  cell{atomic_unit}
       O -1.68990e-04  5.35950e-05 -3.88644e-05
       H  2.86103e-04  8.33660e-05  3.14752e-04
2
# CELL(abcABC):  188.97261   188.97261   188.97261    90.00000    90.00000    90.00000  Step:         444  Bead:       0 v_centroid{atomic_unit}  cell{atomic_unit}
       O -1.49787e-04  5.11791e-05 -4.83162e-05
       H  1.73972e-05  1.07642e-04  4.69336e-04
2
# CELL(abcABC):  188.97261   188.97261   188.97261    90.00000    90.00000    90.00000  Step:         448  Bead:       0 v_centroid{atomic_unit}  cell{atomic_unit}
       O -1.37940e-04  5.07371e-05 -5.54950e-05
       H -1.93459e-04  1.23544e-04  5.80413e-04
2
# CELL(abcABC):  188.97261   188.97261   188.97261    90.00000    90.00000    90.00000  Step:         452  Bead:       0 v_centroid{atomic_unit}  cell{atomic_unit}
       O -1.32996e-04  5.18020e-05 -5.47567e-05
       H -2.92386e-04  1.14617e-04  5.66114e-04
2