ITEM: TIMESTEP
0
ITEM: NUMBER OF ATOMS
1937
ITEM: BOX BOUNDS xy xz yz pp pp pp
-1.2572240730495738e+01 2.4304870365247808e+01 -1.2292370365247834e+01
-2.4237530823902809e-01 2.1048675308238078e+01 6.2658906132436269e-15
-1.1649130707467918e+00 1.0116491307074946e+02 1.0852896700914444e-14
ITEM: ATOMS id mol element type q x y z
1 1 O 1 -0.82 -3.91761 17.1256 36.7157
2 1 H 2 0.41 -3.11105 16.5529 36.6286
3 1 H 2 0.41 -3.8106 17.9266 36.0458
4 2 O 1 -0.82 -1.76849 15.6807 36.258
5 2 H 2 0.41 -1.1407 14.9708 35.9907
6 2 H 2 0.41 -1.61857 16.5147 35.7222
7 3 O 1 -0.82 3.99831 12.8923 33.1148
8 3 H 2 0.41 4.48092 11.9571 33.3194
9 3 H 2 0.41 4.31195 13.452 33.9497
10 4 O 1 -0.82 20.6222 5.12106 30.8541
11 4 H 2 0.41 -3.75959 6.11062 30.5436
12 4 H 2 0.41 -3.03047 4.78649 30.7676
13 5 O 1 -0.82 5.65369 7.83326 17.3264
14 5 H 2 0.41 6.56007 7.67623 17.8654
15 5 H 2 0.41 5.78415 7.6163 16.3336
16 6 O 1 -0.82 16.8708 3.22986 27.3837
17 6 H 2 0.41 17.7024 3.53451 27.704
18 6 H 2 0.41 16.7423 2.33281 27.8012
19 7 O 1 -0.82 -1.27164 19.807 28.6273
20 7 H 2 0.41 -2.08904 19.4455 28.9914
21 7 H 2 0.41 -1.59324 20.4457 27.9011
22 8 O 1 -0.82 -0.510371 15.5394 32.5416
23 8 H 2 0.41 0.240195 16.2161 32.7193
24 8 H 2 0.41 -1.20365 16.1635 32.038
25 9 O 1 -0.82 -3.0208 17.3164 20.7073
26 9 H 2 0.41 -3.61309 17.936 21.286
27 9 H 2 0.41 -3.45703 17.4718 19.78
28 10 O 1 -0.82 9.67012 19.2966 35.4002
29 10 H 2 0.41 9.44293 19.7223 34.5088
30 10 H 2 0.41 8.89076 19.4838 35.9805
31 11 O 1 -0.82 10.7803 7.04838 18.2608
32 11 H 2 0.41 11.1588 6.16869 17.8774
33 11 H 2 0.41 11.5618 7.64173 18.3345
34 12 O 1 -0.82 -6.82859 18.8062 24.3918
35 12 H 2 0.41 -6.1785 18.7348 25.1607
36 12 H 2 0.41 -6.38239 19.5454 23.8211
37 13 O 1 -0.82 13.625 17.8728 22.1635
38 13 H 2 0.41 13.0895 17.0904 22.3476
39 13 H 2 0.41 -10.6127 18.1136 23.1111
40 14 O 1 -0.82 12.5767 2.12127 27.9162
41 14 H 2 0.41 11.8455 1.57432 27.4883
42 14 H 2 0.41 12.0145 2.90469 28.1957
43 15 O 1 -0.82 -3.18751 11.6319 27.6058
44 15 H 2 0.41 -2.82925 10.7787 27.2397
45 15 H 2 0.41 -3.48296 12.2301 26.8941
46 16 O 1 -0.82 0.842255 9.84822 34.3437
47 16 H 2 0.41 0.869403 10.7944 34.7141
48 16 H 2 0.41 1.73575 9.44167 34.5669
49 17 O 1 -0.82 5.29924 7.58163 32.3352
50 17 H 2 0.41 6.3275 7.74911 32.3645
51 17 H 2 0.41 4.98582 8.20741 31.6021
52 18 O 1 -0.82 18.2292 3.50574 34.2688
53 18 H 2 0.41 18.5373 2.62005 33.9484
54 18 H 2 0.41 18.2249 4.14188 33.4205
55 19 O 1 -0.82 -4.40139 14.1166 29.4218
56 19 H 2 0.41 -3.49109 13.6986 29.4286
57 19 H 2 0.41 -4.30656 14.893 30.0347
58 20 O 1 -0.82 3.21792 16.3175 18.0067
59 20 H 2 0.41 3.38629 15.3311 18.0176
60 20 H 2 0.41 2.42465 16.3629 18.627
61 21 O 1 -0.82 -0.841043 9.08188 18.778
62 21 H 2 0.41 -0.467392 10.0005 18.7362
63 21 H 2 0.41 -1.80678 9.23383 18.4067
64 22 O 1 -0.82 2.03817 4.95463 33.6318
65 22 H 2 0.41 1.84915 4.68922 34.5654
66 22 H 2 0.41 2.76928 5.7096 33.7194
67 23 O 1 -0.82 8.17984 1.43067 22.9281
68 23 H 2 0.41 7.55111 2.03189 22.4841
69 23 H 2 0.41 8.95658 1.0974 22.2753
70 24 O 1 -0.82 -0.23942 19.8843 21.4978
71 24 H 2 0.41 -0.369759 19.3017 20.646
72 24 H 2 0.41 0.617865 20.4287 21.2952
73 25 O 1 -0.82 2.6563 3.11689 31.6347
74 25 H 2 0.41 3.03611 3.59446 30.8235
75 25 H 2 0.41 2.47107 3.86893 32.2906
76 26 O 1 -0.82 4.58252 11.8211 36.2262
77 26 H 2 0.41 5.52036 11.3877 36.1817
78 26 H 2 0.41 4.82491 12.7679 35.9993
79 27 O 1 -0.82 5.35071 1.05751 36.8447
80 27 H 2 0.41 5.09955 0.0747154 36.8117
81 27 H 2 0.41 5.10182 1.28368 35.873
82 28 O 1 -0.82 -1.66403 10.0482 30.7063
83 28 H 2 0.41 -0.79865 9.69936 31.0238
84 28 H 2 0.41 -1.5471 10.9078 30.2071
85 29 O 1 -0.82 2.97713 18.593 22.6504
86 29 H 2 0.41 2.82885 17.6769 22.2654
87 29 H 2 0.41 2.35078 18.7282 23.4491
88 30 O 1 -0.82 12.8012 14.8127 23.3682
89 30 H 2 0.41 12.7666 14.1961 24.1751
90 30 H 2 0.41 11.875 14.6579 22.9901
91 31 O 1 -0.82 0.463267 2.36657 20.8106
92 31 H 2 0.41 0.414425 1.34404 20.7835
93 31 H 2 0.41 -0.496823 2.60572 20.8754
94 32 O 1 -0.82 10.1741 1.01597 27.1974
95 32 H 2 0.41 9.57703 0.634365 26.4953
96 32 H 2 0.41 9.56327 1.43137 27.8763
97 33 O 1 -0.82 18.1105 7.99617 33.8917
98 33 H 2 0.41 18.2057 8.60284 34.6931
99 33 H 2 0.41 18.6544 8.48648 33.1458
100 34 O 1 -0.82 -6.92027 15.9621 17.4195
101 34 H 2 0.41 -6.44264 15.0714 17.3859
102 34 H 2 0.41 -6.88843 16.3072 16.4718
103 35 O 1 -0.82 -0.514898 5.83741 38.0389
104 35 H 2 0.41 0.0738271 5.24374 37.4586
105 35 H 2 0.41 -1.28602 5.23854 38.3063
106 36 O 1 -0.82 11.7548 4.60425 17.6388
107 36 H 2 0.41 10.9216 4.06952 17.8567
108 36 H 2 0.41 12.4966 4.19045 18.1896
109 37 O 1 -0.82 13.3731 18.2163 19.3818
110 37 H 2 0.41 13.4999 17.8298 20.3101
111 37 H 2 0.41 -10.2392 18.3964 19.0731
112 38 O 1 -0.82 1.65111 12.6716 25.3594
113 38 H 2 0.41 1.15369 13.366 24.817
114 38 H 2 0.41 2.6518 12.7176 25.1694
115 39 O 1 -0.82 3.01955 3.55788 38.8119
116 39 H 2 0.41 2.60586 2.81793 39.2605
117 39 H 2 0.41 4.03395 3.2503 38.7707
118 40 O 1 -0.82 14.2372 11.8958 32.7073
119 40 H 2 0.41 15.0491 11.3145 32.7911
120 40 H 2 0.41 14.2893 12.4613 31.8617
121 41 O 1 -0.82 4.00873 1.54884 34.3311
122 41 H 2 0.41 3.63585 1.86773 33.4521
123 41 H 2 0.41 3.21161 1.68537 34.9195
124 42 O 1 -0.82 21.2025 0.773774 21.8382
125 42 H 2 0.41 21.2083 1.18385 22.7863
126 42 H 2 0.41 20.2674 0.534224 21.5351
127 43 O 1 -0.82 4.75928 3.21887 19.2491
128 43 H 2 0.41 3.89111 3.30654 19.794
129 43 H 2 0.41 4.5475 3.75875 18.4475
130 44 O 1 -0.82 5.49634 12.9997 27.1575
131 44 H 2 0.41 5.78079 12.7611 26.2483
132 44 H 2 0.41 5.83479 13.9355 27.2985
133 45 O 1 -0.82 0.866999 11.9485 29.5312
134 45 H 2 0.41 0.850507 11.2399 28.7457
135 45 H 2 0.41 1.56357 12.6433 29.1818
136 46 O 1 -0.82 16.0696 13.6458 28.3908
137 46 H 2 0.41 -7.82876 13.9636 29.0786
138 46 H 2 0.41 15.2498 14.3043 28.3795
139 47 O 1 -0.82 13.1796 13.0343 30.1394
140 47 H 2 0.41 12.3138 12.8456 30.5439
141 47 H 2 0.41 13.4338 12.2623 29.4603
142 48 O 1 -0.82 5.94095 19.2455 26.8217
143 48 H 2 0.41 4.93955 19.0694 26.9728
144 48 H 2 0.41 6.1216 19.7135 25.9878
145 49 O 1 -0.82 5.80157 3.37767 38.3269
146 49 H 2 0.41 5.7244 3.90342 37.4405
147 49 H 2 0.41 5.71769 2.38306 38.0762
148 50 O 1 -0.82 11.759 0.777797 17.4626
149 50 H 2 0.41 11.7967 0.109898 18.2826
150 50 H 2 0.41 11.4762 1.64411 17.8574
151 51 O 1 -0.82 -1.52341 16.1064 22.9069
152 51 H 2 0.41 -2.14581 15.9087 22.1406
153 51 H 2 0.41 -2.07407 16.9175 23.2609
154 52 O 1 -0.82 4.84431 6.84825 28.7256
155 52 H 2 0.41 5.61194 6.59559 28.2585
156 52 H 2 0.41 5.10832 7.51549 29.4775
157 53 O 1 -0.82 -2.28681 5.22431 19.2421
158 53 H 2 0.41 -2.45999 4.28837 19.6211
159 53 H 2 0.41 -1.88286 5.71028 20.0515
160 54 O 1 -0.82 4.13954 8.91793 19.2641
161 54 H 2 0.41 4.8596 8.54642 18.6653
162 54 H 2 0.41 3.29032 8.80816 18.7171
163 55 O 1 -0.82 10.028 14.3316 34.0019
164 55 H 2 0.41 10.1465 14.7161 33.0167
165 55 H 2 0.41 9.49753 13.4922 33.8231
166 56 O 1 -0.82 16.7632 9.76161 29.3099
167 56 H 2 0.41 17.4763 10.3269 29.741
168 56 H 2 0.41 16.916 9.68991 28.2846
169 57 O 1 -0.82 14.2868 4.273 27.3399
170 57 H 2 0.41 15.166 3.89344 27.1102
171 57 H 2 0.41 13.7757 3.38179 27.3794
172 58 O 1 -0.82 -1.1062 2.84931 35.6861
173 58 H 2 0.41 -0.853658 3.41156 34.9008
174 58 H 2 0.41 -0.96929 1.89541 35.4951
175 59 O 1 -0.82 -5.88546 9.56066 36.1
176 59 H 2 0.41 17.7479 10.0225 36.2458
177 59 H 2 0.41 -5.18963 10.3459 36.0105
178 60 O 1 -0.82 3.89683 13.7184 18.4174
179 60 H 2 0.41 3.98186 13.1857 19.3217
180 60 H 2 0.41 4.79483 13.9936 18.0895
181 61 O 1 -0.82 2.93659 3.48458 27.3582
182 61 H 2 0.41 3.35741 3.73204 26.4999
183 61 H 2 0.41 1.98234 3.29222 27.1249
184 62 O 1 -0.82 9.05686 8.78749 29.7339
185 62 H 2 0.41 8.78612 8.04408 30.388
186 62 H 2 0.41 10.0087 9.142 29.9981
187 63 O 1 -0.82 4.88116 5.65857 24.5166
188 63 H 2 0.41 4.43875 4.73599 24.6477
189 63 H 2 0.41 4.4766 5.90011 23.6351
190 64 O 1 -0.82 6.67073 11.4331 17.2816
191 64 H 2 0.41 7.02213 11.2313 18.202
192 64 H 2 0.41 6.47567 12.4632 17.1851
193 65 O 1 -0.82 8.23748 7.45116 17.5362
194 65 H 2 0.41 8.34099 7.71867 16.5347
195 65 H 2 0.41 9.21823 7.47874 17.8309
196 66 O 1 -0.82 7.67106 15.8227 34.6286
197 66 H 2 0.41 8.28796 15.2003 35.1061
198 66 H 2 0.41 8.1937 15.9398 33.7611
199 67 O 1 -0.82 -10.1972 19.9572 36.1131
200 67 H 2 0.41 -10.2844 19.2125 35.4998
201 67 H 2 0.41 -9.22184 19.8532 36.4343
202 68 O 1 -0.82 0.248322 13.9329 17.2366
203 68 H 2 0.41 -0.446987 13.985 16.4511
204 68 H 2 0.41 1.04474 13.7032 16.6443
205 69 O 1 -0.82 5.81251 10.0953 28.0222
206 69 H 2 0.41 5.96899 10.9872 27.5734
207 69 H 2 0.41 6.4137 9.46633 27.5721
208 70 O 1 -0.82 13.2787 11.9482 17.5019
209 70 H 2 0.41 14.0566 12.6839 17.4983
210 70 H 2 0.41 12.5431 12.4873 17.8759
211 71 O 1 -0.82 5.26156 18.1609 17.5974
212 71 H 2 0.41 5.48869 18.208 16.5945
213 71 H 2 0.41 4.61597 17.3694 17.6774
214 72 O 1 -0.82 -7.80671 16.2833 24.1145
215 72 H 2 0.41 -7.64684 17.283 24.3071
216 72 H 2 0.41 -6.97626 15.8156 24.4762
217 73 O 1 -0.82 16.7256 -0.0717708 37.835
218 73 H 2 0.41 4.04899 20.4097 37.332
219 73 H 2 0.41 17.6662 -0.218246 38.2936
220 74 O 1 -0.82 8.1726 18.5135 31.2547
221 74 H 2 0.41 8.19994 17.5211 30.9975
222 74 H 2 0.41 7.98089 19.0156 30.4173
223 75 O 1 -0.82 11.3178 9.58009 35.1866
224 75 H 2 0.41 12.1816 9.1766 35.4396
225 75 H 2 0.41 10.5357 9.18831 35.6341
226 76 O 1 -0.82 7.71186 4.63578 39.6088
227 76 H 2 0.41 7.42017 4.77081 40.5461
228 76 H 2 0.41 6.96606 4.10185 39.1747
229 77 O 1 -0.82 12.9957 11.0063 21.6622
230 77 H 2 0.41 12.1799 11.5143 21.871
231 77 H 2 0.41 13.5668 11.5021 21.0358
232 78 O 1 -0.82 19.9966 1.13497 31.6938
233 78 H 2 0.41 19.2002 0.840211 32.2665
234 78 H 2 0.41 19.6531 1.35506 30.7472
235 79 O 1 -0.82 -1.83821 12.8936 29.8913
236 79 H 2 0.41 -0.858589 12.7921 29.7434
237 79 H 2 0.41 -2.23186 12.6049 29.0278
238 80 O 1 -0.82 2.95602 4.9586 29.4012
239 80 H 2 0.41 3.70401 5.58147 29.157
240 80 H 2 0.41 2.86109 4.34513 28.5699
241 81 O 1 -0.82 5.24528 10.5157 33.338
242 81 H 2 0.41 5.80255 9.77836 33.7185
243 81 H 2 0.41 4.38407 10.0808 33.3531
244 82 O 1 -0.82 6.51797 20.6202 39.4601
245 82 H 2 0.41 6.10628 20.7114 40.3951
246 82 H 2 0.41 19.6794 -0.128209 39.5555
247 83 O 1 -0.82 2.19186 16.0155 21.4655
248 83 H 2 0.41 1.36323 16.3799 21.014
249 83 H 2 0.41 1.84755 15.3422 22.1953
250 84 O 1 -0.82 -3.33108 18.8637 34.2963
251 84 H 2 0.41 -2.49907 18.2993 34.4299
252 84 H 2 0.41 -2.9549 19.5248 33.6114
253 85 O 1 -0.82 -4.47642 17.4292 25.9741
254 85 H 2 0.41 -4.78427 16.7864 25.2939
255 85 H 2 0.41 -3.70178 17.9325 25.5248
256 86 O 1 -0.82 0.0977754 12.3249 35.653
257 86 H 2 0.41 -0.706655 12.1287 36.2086
258 86 H 2 0.41 0.86888 11.9955 36.1365
259 87 O 1 -0.82 13.0345 0.492019 24.9207
260 87 H 2 0.41 12.6301 0.781796 25.8026
261 87 H 2 0.41 13.042 1.39218 24.438
262 88 O 1 -0.82 3.32292 15.5968 32.2385
263 88 H 2 0.41 3.74487 14.6725 32.1038
264 88 H 2 0.41 3.59342 15.853 33.2117
265 89 O 1 -0.82 12.264 10.8937 26.5075
266 89 H 2 0.41 12.7091 10.5029 25.6448
267 89 H 2 0.41 11.7074 10.1428 26.8144
268 90 O 1 -0.82 11.7904 10.5327 32.6306
269 90 H 2 0.41 12.6368 11.0927 32.6841
270 90 H 2 0.41 11.7365 10.256 33.6588
271 91 O 1 -0.82 10.8917 2.28693 34.4655
272 91 H 2 0.41 10.8014 2.13301 33.4466
273 91 H 2 0.41 11.8767 2.54138 34.496
274 92 O 1 -0.82 -3.49524 21.0343 25.1473
275 92 H 2 0.41 8.82211 0.277301 24.2723
276 92 H 2 0.41 -4.44196 20.977 25.5556
277 93 O 1 -0.82 -6.10004 20.648 22.8348
278 93 H 2 0.41 5.54387 -0.00489042 22.3634
279 93 H 2 0.41 6.96168 -0.0187931 22.9651
280 94 O 1 -0.82 -5.17481 18.7517 20.9109
281 94 H 2 0.41 -5.75698 19.1536 20.1588
282 94 H 2 0.41 -5.39935 19.2273 21.7334
283 95 O 1 -0.82 3.30685 9.11346 35.3486
284 95 H 2 0.41 2.93257 8.52333 36.1481
285 95 H 2 0.41 3.82428 9.90146 35.7096
286 96 O 1 -0.82 8.12894 0.128552 34.8634
287 96 H 2 0.41 8.70479 0.531863 35.5433
288 96 H 2 0.41 -3.97414 20.4105 34.8032
289 97 O 1 -0.82 15.2135 12.0922 20.1583
290 97 H 2 0.41 15.2517 11.8749 19.1685
291 97 H 2 0.41 15.6511 12.9698 20.1879
292 98 O 1 -0.82 4.76537 1.61532 26.1436
293 98 H 2 0.41 4.11806 1.9414 26.8524
294 98 H 2 0.41 4.12413 1.15516 25.4882
295 99 O 1 -0.82 15.807 0.150253 25.6182
296 99 H 2 0.41 14.9022 0.282964 25.1787
297 99 H 2 0.41 16.3886 0.251266 24.8011
298 100 O 1 -0.82 9.47947 20.6504 32.9122
299 100 H 2 0.41 21.3182 0.141521 32.5395
300 100 H 2 0.41 9.06755 19.9718 32.3354
301 101 O 1 -0.82 2.79862 18.9141 26.7072
302 101 H 2 0.41 2.85595 19.9168 26.5499
303 101 H 2 0.41 2.17573 18.727 27.5936
304 102 O 1 -0.82 -2.23947 10.9373 37.6509
305 102 H 2 0.41 -2.20379 11.1426 38.5821
306 102 H 2 0.41 -1.53448 10.2461 37.4869
307 103 O 1 -0.82 11.8973 20.1017 17.6801
308 103 H 2 0.41 12.5531 19.6547 18.3092
309 103 H 2 0.41 -0.229447 -0.178139 17.7409
310 104 O 1 -0.82 7.56066 15.9136 30.726
311 104 H 2 0.41 6.68822 16.3299 30.4362
312 104 H 2 0.41 7.36035 14.9837 30.489
313 105 O 1 -0.82 11.2639 5.7179 31.9395
314 105 H 2 0.41 11.5106 5.85107 30.9298
315 105 H 2 0.41 12.067 6.03531 32.4272
316 106 O 1 -0.82 7.96733 5.73052 36.7887
317 106 H 2 0.41 7.19264 5.33093 36.3343
318 106 H 2 0.41 7.83678 5.35088 37.6641
319 107 O 1 -0.82 -3.57681 20.0941 17.5831
320 107 H 2 0.41 -3.66753 20.9558 18.1357
321 107 H 2 0.41 -3.82283 20.3433 16.6609
322 108 O 1 -0.82 6.17374 4.79611 30.7826
323 108 H 2 0.41 5.44801 5.37234 31.0959
324 108 H 2 0.41 6.19968 4.14789 31.5644
325 109 O 1 -0.82 10.2617 8.994 27.0031
326 109 H 2 0.41 9.48414 8.39586 26.6697
327 109 H 2 0.41 10.1877 8.94128 28.0126
328 110 O 1 -0.82 12.2634 9.51396 18.4901
329 110 H 2 0.41 11.3422 9.83445 18.7526
330 110 H 2 0.41 12.7933 10.2825 18.0852
331 111 O 1 -0.82 -1.58457 8.87491 34.8641
332 111 H 2 0.41 -2.14037 9.59449 34.4238
333 111 H 2 0.41 -0.60222 9.26573 34.7817
334 112 O 1 -0.82 2.86283 11.0584 31.3016
335 112 H 2 0.41 2.19432 11.3877 30.6102
336 112 H 2 0.41 3.06165 11.7888 31.9458
337 113 O 1 -0.82 0.823084 15.0934 23.8163
338 113 H 2 0.41 0.00751142 15.7073 23.4218
339 113 H 2 0.41 1.46732 15.635 24.4154
340 114 O 1 -0.82 0.416543 3.09018 26.5886
341 114 H 2 0.41 0.621101 2.14269 26.5055
342 114 H 2 0.41 -0.42006 3.08988 27.153
343 115 O 1 -0.82 -1.78821 13.8794 24.6302
344 115 H 2 0.41 -1.77965 14.3245 25.4891
345 115 H 2 0.41 -1.02137 14.2575 24.1078
346 116 O 1 -0.82 -1.46335 6.8574 17.3608
347 116 H 2 0.41 -1.80529 6.28633 18.0938
348 116 H 2 0.41 -1.10727 7.63934 17.8736
349 117 O 1 -0.82 17.056 0.73274 23.1118
350 117 H 2 0.41 16.9278 1.02873 22.1461
351 117 H 2 0.41 17.5077 1.51965 23.5466
352 118 O 1 -0.82 20.086 5.92168 17.4998
353 118 H 2 0.41 -3.64806 5.69615 17.9128
354 118 H 2 0.41 20.3587 6.2877 16.5553
355 119 O 1 -0.82 9.25164 20.4589 18.7215
356 119 H 2 0.41 10.1452 19.9874 19.0027
357 119 H 2 0.41 8.92825 19.7055 18.1107
358 120 O 1 -0.82 -2.01265 13.3485 32.6256
359 120 H 2 0.41 -1.99217 13.3116 31.5698
360 120 H 2 0.41 -1.41137 14.1869 32.6506
361 121 O 1 -0.82 22.4368 1.23303 29.9864
362 121 H 2 0.41 22.7957 1.78143 30.746
363 121 H 2 0.41 21.4927 1.09207 30.2847
364 122 O 1 -0.82 -2.43498 15.8992 26.6071
365 122 H 2 0.41 -3.33932 16.3772 26.6011
366 122 H 2 0.41 -1.80127 16.6077 26.3189
367 123 O 1 -0.82 13.5526 15.4123 29.1087
368 123 H 2 0.41 13.5483 14.413 29.2597
369 123 H 2 0.41 13.3061 15.8276 29.9728
370 124 O 1 -0.82 -0.165532 17.2913 26.3729
371 124 H 2 0.41 0.63672 16.7302 26.1224
372 124 H 2 0.41 -0.20648 18.123 25.7662
373 125 O 1 -0.82 -9.83152 18.8689 24.5887
374 125 H 2 0.41 -9.85005 18.1528 25.317
375 125 H 2 0.41 -8.91341 19.1376 24.5055
376 126 O 1 -0.82 -2.43122 3.85441 37.8171
377 126 H 2 0.41 21.1891 4.10626 37.5737
378 126 H 2 0.41 -2.06011 3.63057 36.9179
379 127 O 1 -0.82 7.46232 4.75871 17.4664
380 127 H 2 0.41 7.56779 5.74594 17.3255
381 127 H 2 0.41 6.50895 4.60216 17.7787
382 128 O 1 -0.82 0.813727 7.65521 20.5701
383 128 H 2 0.41 0.928328 8.35204 21.3191
384 128 H 2 0.41 0.30137 8.2057 19.9168
385 129 O 1 -0.82 5.00685 0.857767 17.8394
386 129 H 2 0.41 5.35312 1.08148 16.9026
387 129 H 2 0.41 4.84042 1.74156 18.2775
388 130 O 1 -0.82 -6.69854 12.2838 22.8049
389 130 H 2 0.41 -7.41547 12.5923 23.3881
390 130 H 2 0.41 -6.2304 13.0963 22.4604
391 131 O 1 -0.82 7.80706 19.1907 37.4013
392 131 H 2 0.41 8.51211 18.7186 37.9553
393 131 H 2 0.41 7.28923 19.6386 38.1268
394 132 O 1 -0.82 9.13031 4.28424 24.4876
395 132 H 2 0.41 10.1424 4.23243 24.6338
396 132 H 2 0.41 8.80858 3.43715 24.9965
397 133 O 1 -0.82 15.0991 15.1086 22.2647
398 133 H 2 0.41 -9.10946 15.7521 22.954
399 133 H 2 0.41 14.1088 15.0748 22.5253
400 134 O 1 -0.82 15.1448 7.42197 21.8927
401 134 H 2 0.41 15.5206 8.36337 22.0465
402 134 H 2 0.41 14.1128 7.50702 21.9569
403 135 O 1 -0.82 14.8681 8.01961 26.0124
404 135 H 2 0.41 15.7259 7.51874 25.7868
405 135 H 2 0.41 14.9777 8.86134 25.4778
406 136 O 1 -0.82 7.71477 0.952985 32.2541
407 136 H 2 0.41 6.95398 0.359245 32.0365
408 136 H 2 0.41 7.96151 0.729568 33.2044
409 137 O 1 -0.82 6.74008 10.2561 36.44
410 137 H 2 0.41 7.39447 10.2706 35.6827
411 137 H 2 0.41 6.97166 9.46313 37.0396
412 138 O 1 -0.82 -6.50755 16.636 33.286
413 138 H 2 0.41 -5.93882 15.8353 33.3436
414 138 H 2 0.41 -7.175 16.5705 34.0629
415 139 O 1 -0.82 -5.02918 13.5554 26.559
416 139 H 2 0.41 -5.24075 13.8508 27.5221
417 139 H 2 0.41 -5.7195 12.8483 26.264
418 140 O 1 -0.82 -1.05778 7.29758 23.861
419 140 H 2 0.41 -0.415737 7.95945 24.3596
420 140 H 2 0.41 -1.97991 7.80769 23.8698
421 141 O 1 -0.82 -2.46595 18.5012 24.6898
422 141 H 2 0.41 -2.94735 19.378 24.7174
423 141 H 2 0.41 -1.54078 18.7251 24.4613
424 142 O 1 -0.82 -3.82804 8.11527 20.1785
425 142 H 2 0.41 -3.5887 9.0461 20.675
426 142 H 2 0.41 -3.72571 8.31192 19.2023
427 143 O 1 -0.82 1.2183 6.52536 31.053
428 143 H 2 0.41 1.81714 6.25823 30.2909
429 143 H 2 0.41 1.13627 7.54704 31.0884
430 144 O 1 -0.82 11.6073 9.58355 29.9514
431 144 H 2 0.41 11.5666 9.97397 30.8617
432 144 H 2 0.41 12.4771 9.95485 29.6131
433 145 O 1 -0.82 11.5761 4.5909 25.6113
434 145 H 2 0.41 11.4101 4.77465 26.606
435 145 H 2 0.41 12.1942 5.32403 25.3809
436 146 O 1 -0.82 8.39981 6.64288 31.375
437 146 H 2 0.41 7.77326 5.96193 30.9781
438 146 H 2 0.41 9.17768 6.08059 31.7457
439 147 O 1 -0.82 13.9104 -0.0759203 33.6923
440 147 H 2 0.41 13.741 0.908678 33.8261
441 147 H 2 0.41 1.38443 20.84 34.5803
442 148 O 1 -0.82 2.6289 15.5496 29.6112
443 148 H 2 0.41 2.72691 15.685 30.6716
444 148 H 2 0.41 1.67639 15.8325 29.406
445 149 O 1 -0.82 6.19786 20.0313 24.1662
446 149 H 2 0.41 5.76649 20.857 23.8575
447 149 H 2 0.41 6.23862 19.4015 23.3862
448 150 O 1 -0.82 -6.57209 16.3598 21.0693
449 150 H 2 0.41 -6.04714 17.2465 21.0493
450 150 H 2 0.41 -7.48452 16.5866 21.4313
451 151 O 1 -0.82 -3.35945 9.47937 17.6751
452 151 H 2 0.41 -4.04122 10.1732 17.9264
453 151 H 2 0.41 -3.48673 9.45486 16.6581
454 152 O 1 -0.82 1.57848 0.916698 30.7791
455 152 H 2 0.41 0.898737 0.603052 31.4148
456 152 H 2 0.41 2.01037 1.8369 31.1221
457 153 O 1 -0.82 12.7472 13.4135 25.796
458 153 H 2 0.41 12.4704 12.4788 26.1336
459 153 H 2 0.41 12.2306 14.1297 26.322
460 154 O 1 -0.82 2.56471 16.6033 25.1589
461 154 H 2 0.41 2.55325 17.4697 25.6677
462 154 H 2 0.41 3.43972 16.5686 24.5328
463 155 O 1 -0.82 7.78036 19.5731 28.731
464 155 H 2 0.41 8.56688 19.2065 28.2622
465 155 H 2 0.41 7.04824 19.3068 28.0641
466 156 O 1 -0.82 -8.00418 18.3577 28.3708
467 156 H 2 0.41 -8.2989 19.052 29.0885
468 156 H 2 0.41 -8.88369 18.1243 27.8579
469 157 O 1 -0.82 -1.94481 4.57884 25.5421
470 157 H 2 0.41 -1.88172 5.37978 26.2049
471 157 H 2 0.41 -2.19565 3.84246 26.1223
472 158 O 1 -0.82 2.68129 6.00522 22.2985
473 158 H 2 0.41 2.50174 6.98473 22.1122
474 158 H 2 0.41 2.05429 5.72831 23.0968
475 159 O 1 -0.82 5.19631 16.8677 29.6909
476 159 H 2 0.41 4.32485 16.3411 29.7436
477 159 H 2 0.41 4.87577 17.7683 30.0755
478 160 O 1 -0.82 17.9512 0.934853 33.6534
479 160 H 2 0.41 17.0747 1.24277 34.0771
480 160 H 2 0.41 17.9896 -0.0855306 33.8069
481 161 O 1 -0.82 -2.38961 6.98383 27.017
482 161 H 2 0.41 -3.24265 7.40755 27.3517
483 161 H 2 0.41 -1.92464 7.82668 26.5877
484 162 O 1 -0.82 -0.551198 8.58932 37.5191
485 162 H 2 0.41 -0.779348 8.51444 36.5559
486 162 H 2 0.41 -0.502864 7.70023 37.9428
487 163 O 1 -0.82 15.0951 4.98965 23.5886
488 163 H 2 0.41 15.0476 5.76983 22.9531
489 163 H 2 0.41 15.4871 5.43923 24.4091
490 164 O 1 -0.82 0.903447 1.0341 17.616
491 164 H 2 0.41 1.14986 1.12941 16.6416
492 164 H 2 0.41 0.698708 2.01631 17.9166
493 165 O 1 -0.82 -1.06556 19.26 18.8344
494 165 H 2 0.41 -0.726831 18.5496 18.178
495 165 H 2 0.41 -1.92721 19.6461 18.4083
496 166 O 1 -0.82 1.01914 19.8299 35.8727
497 166 H 2 0.41 0.454192 20.2011 36.6296
498 166 H 2 0.41 1.83967 19.4555 36.3295
499 167 O 1 -0.82 4.44506 12.8032 21.1062
500 167 H 2 0.41 3.72093 12.0819 20.9204
501 167 H 2 0.41 4.52695 12.8413 22.108
502 168 O 1 -0.82 16.9373 11.9822 26.5211
503 168 H 2 0.41 16.3924 12.0615 25.7206
504 168 H 2 0.41 16.5506 12.5023 27.2838
505 169 O 1 -0.82 3.95701 19.0724 35.8686
506 169 H 2 0.41 4.89337 18.7257 35.9606
507 169 H 2 0.41 3.97212 19.4769 34.9236
508 170 O 1 -0.82 -2.0174 3.25203 28.156
509 170 H 2 0.41 22.5831 2.42888 28.8062
510 170 H 2 0.41 -2.03125 4.09339 28.7294
511 171 O 1 -0.82 16.5783 10.939 35.8309
512 171 H 2 0.41 16.8946 11.9165 35.7628
513 171 H 2 0.41 16.2003 10.6466 34.8909
514 172 O 1 -0.82 14.5956 6.7762 28.5458
515 172 H 2 0.41 14.4825 5.86524 28.2227
516 172 H 2 0.41 14.6975 7.36928 27.7552
517 173 O 1 -0.82 14.3662 1.5323 29.9558
518 173 H 2 0.41 13.8593 1.62754 29.095
519 173 H 2 0.41 14.2116 2.39347 30.4855
520 174 O 1 -0.82 4.28207 13.1202 24.1463
521 174 H 2 0.41 4.47315 14.1344 24.0921
522 174 H 2 0.41 5.10261 12.6323 24.3653
523 175 O 1 -0.82 2.77821 3.41585 21.2387
524 175 H 2 0.41 1.86092 2.99956 21.0981
525 175 H 2 0.41 2.69162 4.38006 21.5285
526 176 O 1 -0.82 16.0178 2.10027 17.4983
527 176 H 2 0.41 16.5421 2.95271 17.6157
528 176 H 2 0.41 15.9629 1.92981 16.4801
529 177 O 1 -0.82 11.4135 15.5129 27.0366
530 177 H 2 0.41 10.6256 15.0194 27.4589
531 177 H 2 0.41 12.0936 15.7129 27.772
532 178 O 1 -0.82 2.33 19.2938 17.4345
533 178 H 2 0.41 2.30235 19.9249 18.1755
534 178 H 2 0.41 3.09403 18.62 17.5817
535 179 O 1 -0.82 18.3247 7.8936 23.0682
536 179 H 2 0.41 18.6899 6.95837 22.9405
537 179 H 2 0.41 17.9098 8.27378 22.1919
538 180 O 1 -0.82 14.0956 3.98091 31.2514
539 180 H 2 0.41 13.9068 4.94743 31.4641
540 180 H 2 0.41 15.1225 4.11923 31.274
541 181 O 1 -0.82 12.3689 7.28905 24.7533
542 181 H 2 0.41 12.3244 7.76053 23.8396
543 181 H 2 0.41 13.041 7.81755 25.269
544 182 O 1 -0.82 -3.84762 19.8097 29.5368
545 182 H 2 0.41 -4.51984 19.0755 29.2784
546 182 H 2 0.41 -4.22393 20.6955 29.19
547 183 O 1 -0.82 4.82511 9.34342 30.4873
548 183 H 2 0.41 4.28605 10.1346 30.7161
549 183 H 2 0.41 5.41238 9.53706 29.6363
550 184 O 1 -0.82 16.3835 0.776663 28.4172
551 184 H 2 0.41 15.5387 0.952085 28.8781
552 184 H 2 0.41 16.2019 0.574391 27.4429
553 185 O 1 -0.82 5.51514 8.8465 21.4358
554 185 H 2 0.41 4.82258 8.77156 20.7461
555 185 H 2 0.41 6.12626 8.11783 21.1795
556 186 O 1 -0.82 15.7415 5.68203 19.6999
557 186 H 2 0.41 16.6643 5.45153 19.9871
558 186 H 2 0.41 15.5181 6.39236 20.4625
559 187 O 1 -0.82 9.87932 10.6981 19.2288
560 187 H 2 0.41 9.82372 11.2421 20.0479
561 187 H 2 0.41 9.01854 10.1592 19.1462
562 188 O 1 -0.82 0.00308352 3.9376 17.7418
563 188 H 2 0.41 0.426672 4.85544 17.7871
564 188 H 2 0.41 -0.744532 3.91118 18.3584
565 189 O 1 -0.82 16.8618 6.48409 25.2457
566 189 H 2 0.41 17.4353 6.21021 26.0972
567 189 H 2 0.41 17.4073 6.99762 24.6131
568 190 O 1 -0.82 -8.89634 20.2828 30.6331
569 190 H 2 0.41 -8.03152 20.4547 31.2207
570 190 H 2 0.41 2.81597 -0.160537 30.7205
571 191 O 1 -0.82 8.91743 1.77246 29.9534
572 191 H 2 0.41 9.69823 1.93797 30.6224
573 191 H 2 0.41 8.23123 1.44641 30.6029
574 192 O 1 -0.82 -1.06736 1.84461 39.3724
575 192 H 2 0.41 -1.39314 2.31996 38.5733
576 192 H 2 0.41 -1.36876 2.48253 40.0991
577 193 O 1 -0.82 10.6946 20.0058 21.8794
578 193 H 2 0.41 11.5788 20.4494 21.65
579 193 H 2 0.41 9.92702 20.6042 21.619
580 194 O 1 -0.82 2.19936 11.9469 37.4341
581 194 H 2 0.41 3.09391 12.1107 37.0584
582 194 H 2 0.41 2.50373 11.8954 38.402
583 195 O 1 -0.82 -0.949848 14.1118 19.8286
584 195 H 2 0.41 -0.862343 14.3216 18.8546
585 195 H 2 0.41 -0.387515 14.8828 20.2082
586 196 O 1 -0.82 18.0353 4.64017 20.8089
587 196 H 2 0.41 17.6881 4.31565 21.7152
588 196 H 2 0.41 18.9583 4.99468 21.1232
589 197 O 1 -0.82 10.6593 19.0809 39.6205
590 197 H 2 0.41 10.9491 18.3042 40.1775
591 197 H 2 0.41 10.8278 18.813 38.5984
592 198 O 1 -0.82 6.69822 13.3621 30.0728
593 198 H 2 0.41 7.07713 12.7301 29.3204
594 198 H 2 0.41 5.74843 13.0574 30.2221
595 199 O 1 -0.82 8.76843 0.905024 19.1694
596 199 H 2 0.41 9.4043 0.692108 19.9382
597 199 H 2 0.41 8.12289 1.61042 19.5325
598 200 O 1 -0.82 -3.43144 8.4346 23.7714
599 200 H 2 0.41 -3.97565 7.71034 23.2893
600 200 H 2 0.41 -4.14144 8.99219 24.2143
601 201 O 1 -0.82 15.1532 12.971 24.0586
602 201 H 2 0.41 14.9437 13.5294 23.2957
603 201 H 2 0.41 14.3043 13.0398 24.6625
604 202 O 1 -0.82 -4.7373 7.94708 28.4559
605 202 H 2 0.41 -4.29176 8.27494 29.3197
606 202 H 2 0.41 -5.14492 8.84694 28.1379
607 203 O 1 -0.82 4.96183 1.3666 21.3585
608 203 H 2 0.41 5.50624 1.45414 20.5351
609 203 H 2 0.41 4.27346 2.07679 21.38
610 204 O 1 -0.82 21.1786 1.40925 17.4554
611 204 H 2 0.41 20.8358 1.13373 16.5245
612 204 H 2 0.41 21.449 0.506077 18.0052
613 205 O 1 -0.82 6.31469 17.9265 35.5928
614 205 H 2 0.41 6.79678 17.0857 35.2622
615 205 H 2 0.41 6.92273 18.1701 36.3791
616 206 O 1 -0.82 16.9034 4.10505 30.9683
617 206 H 2 0.41 17.5557 3.8427 30.2473
618 206 H 2 0.41 17.2047 4.88431 31.5117
619 207 O 1 -0.82 -10.3568 17.7343 27.1541
620 207 H 2 0.41 13.5743 18.2298 27.8316
621 207 H 2 0.41 14.122 16.7714 27.5042
622 208 O 1 -0.82 0.0778816 10.5512 24.4082
623 208 H 2 0.41 0.718842 11.2531 24.6494
624 208 H 2 0.41 0.542347 9.93369 23.7666
625 209 O 1 -0.82 4.92177 15.7653 23.8279
626 209 H 2 0.41 5.82094 15.97 24.201
627 209 H 2 0.41 5.13402 15.9063 22.8
628 210 O 1 -0.82 0.877603 14.7281 34.9062
629 210 H 2 0.41 0.55218 14.7387 33.9758
630 210 H 2 0.41 0.676601 13.7803 35.2614
631 211 O 1 -0.82 8.71263 4.02441 34.4833
632 211 H 2 0.41 9.50851 3.49505 34.6084
633 211 H 2 0.41 8.72249 4.62282 35.364
634 212 O 1 -0.82 1.68902 4.25507 36.6429
635 212 H 2 0.41 1.46499 3.34515 36.2637
636 212 H 2 0.41 2.22559 4.02372 37.497
637 213 O 1 -0.82 9.90399 3.46334 38.3237
638 213 H 2 0.41 10.5761 4.19322 38.1018
639 213 H 2 0.41 9.09743 3.86795 38.7817
640 214 O 1 -0.82 7.65516 6.42533 28.127
641 214 H 2 0.41 8.12203 6.61387 27.2611
642 214 H 2 0.41 7.69148 5.42344 28.3437
643 215 O 1 -0.82 6.5244 3.3802 33.0368
644 215 H 2 0.41 7.35402 3.75464 33.4897
645 215 H 2 0.41 6.8196 2.46591 32.7367
646 216 O 1 -0.82 17.5965 4.19387 18.0775
647 216 H 2 0.41 18.3417 4.85725 17.9279
648 216 H 2 0.41 17.793 3.91813 19.021
649 217 O 1 -0.82 14.573 14.2559 17.1916
650 217 H 2 0.41 15.3063 14.5805 16.5992
651 217 H 2 0.41 14.9579 14.4055 18.0776
652 218 O 1 -0.82 10.3087 0.728433 21.4689
653 218 H 2 0.41 10.8838 1.56251 21.6113
654 218 H 2 0.41 10.9912 -0.000505953 21.5346
655 219 O 1 -0.82 -7.22512 13.5594 35.3067
656 219 H 2 0.41 -6.35159 13.5283 34.7793
657 219 H 2 0.41 -7.38574 14.5391 35.5817
658 220 O 1 -0.82 8.90675 6.83332 25.6008
659 220 H 2 0.41 9.84769 7.02537 25.5194
660 220 H 2 0.41 8.88911 5.92538 25.1297
661 221 O 1 -0.82 6.20951 15.6526 27.5799
662 221 H 2 0.41 5.93479 16.0666 28.5296
663 221 H 2 0.41 5.9455 16.3187 26.8778
664 222 O 1 -0.82 -2.5663 11.4788 24.7234
665 222 H 2 0.41 -1.69166 10.9736 24.5305
666 222 H 2 0.41 -2.30704 12.4879 24.7122
667 223 O 1 -0.82 -1.39083 16.6141 17.6882
668 223 H 2 0.41 -1.26078 16.4901 16.6472
669 223 H 2 0.41 -2.38044 16.6187 17.8338
670 224 O 1 -0.82 8.87912 9.18701 33.066
671 224 H 2 0.41 9.78462 9.60678 33.1933
672 224 H 2 0.41 9.02939 8.41871 32.4663
673 225 O 1 -0.82 3.06297 16.0952 34.9937
674 225 H 2 0.41 2.18779 15.5605 35.1426
675 225 H 2 0.41 2.73874 17.0076 35.3335
676 226 O 1 -0.82 13.6674 2.75052 34.2869
677 226 H 2 0.41 13.9299 3.13142 33.3961
678 226 H 2 0.41 14.4401 3.05866 34.9151
679 227 O 1 -0.82 9.75811 17.5704 23.2613
680 227 H 2 0.41 10.4426 17.5633 23.9799
681 227 H 2 0.41 10.0265 18.3601 22.6881
682 228 O 1 -0.82 2.42148 -0.085446 19.3396
683 228 H 2 0.41 1.92348 0.667654 18.8242
684 228 H 2 0.41 3.36038 0.226253 19.1357
685 229 O 1 -0.82 4.11279 6.79625 34.4345
686 229 H 2 0.41 4.65396 7.05964 33.6291
687 229 H 2 0.41 3.91112 7.6994 34.8622
688 230 O 1 -0.82 -5.72743 20.7817 26.758
689 230 H 2 0.41 6.05718 0.183234 26.2141
690 230 H 2 0.41 -6.43053 20.4575 27.448
691 231 O 1 -0.82 10.4802 12.0359 21.9535
692 231 H 2 0.41 10.0745 12.9471 21.9528
693 231 H 2 0.41 10.0556 11.3757 22.6123
694 232 O 1 -0.82 -1.38059 19.9663 37.2533
695 232 H 2 0.41 -1.95444 20.8229 37.2389
696 232 H 2 0.41 -1.96265 19.2797 37.6743
697 233 O 1 -0.82 19.1494 3.89111 28.8417
698 233 H 2 0.41 19.6869 4.26257 29.5995
699 233 H 2 0.41 19.1606 2.84694 28.736
700 234 O 1 -0.82 13.2246 3.0558 23.9694
701 234 H 2 0.41 12.6785 3.66785 24.5862
702 234 H 2 0.41 14.0604 3.57062 23.8703
703 235 O 1 -0.82 -7.23875 19.6792 36.6466
704 235 H 2 0.41 -6.47504 19.8694 35.9479
705 235 H 2 0.41 -6.91129 18.7667 37.0404
706 236 O 1 -0.82 7.25076 2.71597 26.026
707 236 H 2 0.41 6.23106 2.39013 26.0889
708 236 H 2 0.41 7.38791 3.00502 26.9542
709 237 O 1 -0.82 5.74271 4.55217 35.6819
710 237 H 2 0.41 5.87563 4.0725 34.7432
711 237 H 2 0.41 5.06673 5.27332 35.4436
712 238 O 1 -0.82 9.91584 15.0343 22.0871
713 238 H 2 0.41 9.90436 15.9676 22.4392
714 238 H 2 0.41 9.30851 14.5693 22.7444
715 239 O 1 -0.82 12.5205 8.30276 21.9291
716 239 H 2 0.41 12.6752 9.31291 22.0553
717 239 H 2 0.41 11.6191 8.14505 21.5608
718 240 O 1 -0.82 11.4634 17.5998 25.375
719 240 H 2 0.41 11.6264 16.8309 26.0502
720 240 H 2 0.41 12.1498 18.326 25.5459
721 241 O 1 -0.82 15.4345 6.53608 34.6958
722 241 H 2 0.41 16.2498 7.14856 34.5357
723 241 H 2 0.41 15.8876 5.66035 35.0268
724 242 O 1 -0.82 -8.09673 16.3568 35.5428
725 242 H 2 0.41 -7.5531 16.7366 36.3254