2
# CELL(abcABC):  188.97261   188.97261   188.97261    90.00000    90.00000    90.00000  Step:           0  Bead:       0 v_centroid{atomic_unit}  cell{atomic_unit}
       O -1.63538e-04  5.74626e-05  2.69356e-07
       H  4.00902e-05  8.41361e-05 -3.26540e-04
2
# CELL(abcABC):  188.97261   188.97261   188.97261    90.00000    90.00000    90.00000  Step:           4  Bead:       0 v_centroid{atomic_unit}  cell{atomic_unit}
       O -1.60404e-04  5.20822e-05 -1.03768e-05
       H -9.64483e-06  1.69541e-04 -1.57550e-04
2
# CELL(abcABC):  188.97261   188.97261   188.97261    90.00000    90.00000    90.00000  Step:           8  Bead:       0 v_centroid{atomic_unit}  cell{atomic_unit}
       O -1.55530e-04  4.76038e-05 -2.59660e-05
       H -8.70120e-05  2.40628e-04  8.99023e-05
2
# CELL(abcABC):  188.97261   188.97261   188.97261    90.00000    90.00000    90.00000  Step:          12  Bead:       0 v_centroid{atomic_unit}  cell{atomic_unit}
       O -1.49770e-04  4.92216e-05 -3.74310e-05
       H -1.78454e-04  2.14949e-04  2.71891e-04
2
# CELL(abcABC):  188.97261   188.97261   188.97261    90.00000    90.00000    90.00000  Step:          16  Bead:       0 v_centroid{atomic_unit}  cell{atomic_unit}
       O -1.45152e-04  5.23244e-05 -4.69003e-05
       H -2.51749e-04  1.65696e-04  4.22201e-04
2
# CELL(abcABC):  188.97261   188.97261   188.97261    90.00000    90.00000    90.00000  Step:          20  Bead:       0 v_centroid{atomic_unit}  cell{atomic_unit}
       O -1.45528e-04  5.62125e-05 -4.95617e-05
       H -2.45775e-04  1.03979e-04  4.64446e-04
2
# CELL(abcABC):  188.97261   188.97261   188.97261    90.00000    90.00000    90.00000  Step:          24  Bead:       0 v_centroid{atomic_unit}  cell{atomic_unit}
       O -1.52393e-04  6.00737e-05 -3.60820e-05
       H -1.36804e-04  4.26892e-05  2.50478e-04
2
# CELL(abcABC):  188.97261   188.97261   188.97261    90.00000    90.00000    90.00000  Step:          28  Bead:       0 v_centroid{atomic_unit}  cell{atomic_unit}
       O -1.59560e-04  5.92641e-05 -1.82959e-05
       H -2.30543e-05  5.55400e-05 -3.18472e-05
2
# CELL(abcABC):  188.97261   188.97261   188.97261    90.00000    90.00000    90.00000  Step:          32  Bead:       0 v_centroid{atomic_unit}  cell{atomic_unit}
       O -1.64522e-04  5.46797e-05 -7.62024e-06
       H  5.57208e-05  1.28311e-04 -2.01306e-04
2
# CELL(abcABC):  188.97261   188.97261   188.97261    90.00000    90.00000    90.00000  Step:          36  Bead:       0 v_centroid{atomic_unit}  cell{atomic_unit}
       O -1.66309e-04  5.03524e-05 -5.46983e-06
       H  8.40893e-05  1.97000e-04 -2.35440e-04
2
# CELL(abcABC):  188.97261   188.97261   188.97261    90.00000    90.00000    90.00000  Step:          40  Bead:       0 v_centroid{atomic_unit}  cell{atomic_unit}
       O -1.60300e-04  4.75662e-05 -1.65985e-05
       H -1.12943e-05  2.41225e-04 -5.87903e-05
2
# CELL(abcABC):  188.97261   188.97261   188.97261    90.00000    90.00000    90.00000  Step:          44  Bead:       0 v_centroid{atomic_unit}  cell{atomic_unit}
       O -1.51614e-04  4.82806e-05 -3.45710e-05
       H -1.49182e-04  2.29885e-04  2.26493e-04
2
# CELL(abcABC):  188.97261   188.97261   188.97261    90.00000    90.00000    90.00000  Step:          48  Bead:       0 v_centroid{atomic_unit}  cell{atomic_unit}
       O -1.45255e-04  5.20958e-05 -4.87974e-05
       H -2.50109e-04  1.69326e-04  4.52314e-04
2
# CELL(abcABC):  188.97261   188.97261   188.97261    90.00000    90.00000    90.00000  Step:          52  Bead:       0 v_centroid{atomic_unit}  cell{atomic_unit}
       O -1.41930e-04  5.63162e-05 -5.36565e-05
       H -3.02889e-04  1.02334e-04  5.29444e-04
2
# CELL(abcABC):  188.97261   188.97261   188.97261    90.00000    90.00000    90.00000  Step:          56  Bead:       0 v_centroid{atomic_unit}  cell{atomic_unit}
       O -1.43561e-04  6.07159e-05 -4.46541e-05
       H -2.77002e-04  3.24964e-05  3.86545e-04
2
# CELL(abcABC):  188.97261   188.97261   188.97261    90.00000    90.00000    90.00000  Step:          60  Bead:       0 v_centroid{atomic_unit}  cell{atomic_unit}
       O -1.53045e-04  6.04600e-05 -2.89554e-05
       H -1.26456e-04  3.65574e-05  1.37354e-04
2
# CELL(abcABC):  188.97261   188.97261   188.97261    90.00000    90.00000    90.00000  Step:          64  Bead:       0 v_centroid{atomic_unit}  cell{atomic_unit}
       O -1.68933e-04  5.45575e-05 -9.57176e-06
       H  1.25730e-04  1.30250e-04 -1.70329e-04
2
# CELL(abcABC):  188.97261   188.97261   188.97261    90.00000    90.00000    90.00000  Step:          68  Bead:       0 v_centroid{atomic_unit}  cell{atomic_unit}
       O -1.78811e-04  4.92687e-05  4.43809e-06
       H  2.82534e-04  2.14201e-04 -3.92712e-04
2
# CELL(abcABC):  188.97261   188.97261   188.97261    90.00000    90.00000    90.00000  Step:          72  Bead:       0 v_centroid{atomic_unit}  cell{atomic_unit}
       O -1.77244e-04  4.64985e-05  6.06739e-06
       H  2.57659e-04  2.58174e-04 -4.18575e-04
2
# CELL(abcABC):  188.97261   188.97261   188.97261    90.00000    90.00000    90.00000  Step:          76  Bead:       0 v_centroid{atomic_unit}  cell{atomic_unit}
       O -1.67194e-04  4.59940e-05 -6.78642e-06
       H  9.81245e-05  2.66182e-04 -2.14542e-04
2
# CELL(abcABC):  188.97261   188.97261   188.97261    90.00000    90.00000    90.00000  Step:          80  Bead:       0 v_centroid{atomic_unit}  cell{atomic_unit}
       O -1.53909e-04  4.68239e-05 -3.00819e-05
       H -1.12743e-04  2.53009e-04  1.55236e-04
2
# CELL(abcABC):  188.97261   188.97261   188.97261    90.00000    90.00000    90.00000  Step:          84  Bead:       0 v_centroid{atomic_unit}  cell{atomic_unit}
       O -1.44272e-04  4.96356e-05 -4.47159e-05
       H -2.65716e-04  2.08377e-04  3.87526e-04
2
# CELL(abcABC):  188.97261   188.97261   188.97261    90.00000    90.00000    90.00000  Step:          88  Bead:       0 v_centroid{atomic_unit}  cell{atomic_unit}
       O -1.40889e-04  5.53414e-05 -4.37666e-05
       H -3.19412e-04  1.17807e-04  3.72458e-04
2
# CELL(abcABC):  188.97261   188.97261   188.97261    90.00000    90.00000    90.00000  Step:          92  Bead:       0 v_centroid{atomic_unit}  cell{atomic_unit}
       O -1.42718e-04  5.85867e-05 -3.87393e-05
       H -2.90387e-04  6.62926e-05  2.92658e-04
2
# CELL(abcABC):  188.97261   188.97261   188.97261    90.00000    90.00000    90.00000  Step:          96  Bead:       0 v_centroid{atomic_unit}  cell{atomic_unit}
       O -1.54735e-04  5.64852e-05 -2.31717e-05
       H -9.96423e-05  9.96518e-05  4.55474e-05
2
# CELL(abcABC):  188.97261   188.97261   188.97261    90.00000    90.00000    90.00000  Step:         100  Bead:       0 v_centroid{atomic_unit}  cell{atomic_unit}
       O -1.74544e-04  5.20599e-05  4.77501e-06
       H  2.14797e-04  1.69896e-04 -3.98060e-04
2
# CELL(abcABC):  188.97261   188.97261   188.97261    90.00000    90.00000    90.00000  Step:         104  Bead:       0 v_centroid{atomic_unit}  cell{atomic_unit}
       O -1.86180e-04  5.04991e-05  2.54926e-05
       H  3.99508e-04  1.94671e-04 -7.26918e-04
2
# CELL(abcABC):  188.97261   188.97261   188.97261    90.00000    90.00000    90.00000  Step:         108  Bead:       0 v_centroid{atomic_unit}  cell{atomic_unit}
       O -1.84301e-04  4.98836e-05  2.44959e-05
       H  3.69673e-04  2.04441e-04 -7.11098e-04
2
# CELL(abcABC):  188.97261   188.97261   188.97261    90.00000    90.00000    90.00000  Step:         112  Bead:       0 v_centroid{atomic_unit}  cell{atomic_unit}
       O -1.74656e-04  5.01055e-05  5.27693e-06
       H  2.16576e-04  2.00919e-04 -4.06028e-04
2
# CELL(abcABC):  188.97261   188.97261   188.97261    90.00000    90.00000    90.00000  Step:         116  Bead:       0 v_centroid{atomic_unit}  cell{atomic_unit}
       O -1.62439e-04  5.34043e-05 -1.66268e-05
       H  2.26588e-05  1.48555e-04 -5.83415e-05
2
# CELL(abcABC):  188.97261   188.97261   188.97261    90.00000    90.00000    90.00000  Step:         120  Bead:       0 v_centroid{atomic_unit}  cell{atomic_unit}
       O -1.50785e-04  5.77162e-05 -3.27889e-05
       H -1.62337e-04  8.01114e-05  1.98206e-04
2
# CELL(abcABC):  188.97261   188.97261   188.97261    90.00000    90.00000    90.00000  Step:         124  Bead:       0 v_centroid{atomic_unit}  cell{atomic_unit}
       O -1.44885e-04  5.83602e-05 -4.19643e-05
       H -2.55991e-04  6.98882e-05  3.43849e-04
2
# CELL(abcABC):  188.97261   188.97261   188.97261    90.00000    90.00000    90.00000  Step:         128  Bead:       0 v_centroid{atomic_unit}  cell{atomic_unit}
       O -1.46849e-04  5.44656e-05 -4.30122e-05
       H -2.24817e-04  1.31709e-04  3.60483e-04
2
# CELL(abcABC):  188.97261   188.97261   188.97261    90.00000    90.00000    90.00000  Step:         132  Bead:       0 v_centroid{atomic_unit}  cell{atomic_unit}
       O -1.54481e-04  5.07450e-05 -2.96977e-05
       H -1.03675e-04  1.90768e-04  1.49137e-04
2
# CELL(abcABC):  188.97261   188.97261   188.97261    90.00000    90.00000    90.00000  Step:         136  Bead:       0 v_centroid{atomic_unit}  cell{atomic_unit}
       O -1.66114e-04  4.78189e-05 -5.23400e-06
       H  8.09859e-05  2.37214e-04 -2.39184e-04
2
# CELL(abcABC):  188.97261   188.97261   188.97261    90.00000    90.00000    90.00000  Step:         140  Bead:       0 v_centroid{atomic_unit}  cell{atomic_unit}
       O -1.76651e-04  4.72847e-05  1.43703e-05
       H  2.48242e-04  2.45694e-04 -5.50369e-04
2
# CELL(abcABC):  188.97261   188.97261   188.97261    90.00000    90.00000    90.00000  Step:         144  Bead:       0 v_centroid{atomic_unit}  cell{atomic_unit}
       O -1.76730e-04  5.04933e-05  1.08959e-05
       H  2.49504e-04  1.94762e-04 -4.95220e-04
2
# CELL(abcABC):  188.97261   188.97261   188.97261    90.00000    90.00000    90.00000  Step:         148  Bead:       0 v_centroid{atomic_unit}  cell{atomic_unit}
       O -1.69782e-04  5.42867e-05 -8.69085e-06
       H  1.39214e-04  1.34548e-04 -1.84312e-04
2
# CELL(abcABC):  188.97261   188.97261   188.97261    90.00000    90.00000    90.00000  Step:         152  Bead:       0 v_centroid{atomic_unit}  cell{atomic_unit}
       O -1.61725e-04  5.45890e-05 -3.00969e-05
       H  1.13112e-05  1.29750e-04  1.55475e-04
2
# CELL(abcABC):  188.97261   188.97261   188.97261    90.00000    90.00000    90.00000  Step:         156  Bead:       0 v_centroid{atomic_unit}  cell{atomic_unit}
       O -1.52767e-04  5.13553e-05 -4.91502e-05
       H -1.30877e-04  1.81081e-04  4.57914e-04
2
# CELL(abcABC):  188.97261   188.97261   188.97261    90.00000    90.00000    90.00000  Step:         160  Bead:       0 v_centroid{atomic_unit}  cell{atomic_unit}
       O -1.46023e-04  4.66824e-05 -6.26590e-05
       H -2.37919e-04  2.55254e-04  6.72345e-04
2
# CELL(abcABC):  188.97261   188.97261   188.97261    90.00000    90.00000    90.00000  Step:         164  Bead:       0 v_centroid{atomic_unit}  cell{atomic_unit}
       O -1.43883e-04  4.23194e-05 -6.52617e-05
       H -2.71900e-04  3.24510e-04  7.13658e-04
2
# CELL(abcABC):  188.97261   188.97261   188.97261    90.00000    90.00000    90.00000  Step:         168  Bead:       0 v_centroid{atomic_unit}  cell{atomic_unit}
       O -1.46552e-04  3.91546e-05 -5.18782e-05
       H -2.29535e-04  3.74746e-04  5.01217e-04
2
# CELL(abcABC):  188.97261   188.97261   188.97261    90.00000    90.00000    90.00000  Step:         172  Bead:       0 v_centroid{atomic_unit}  cell{atomic_unit}
       O -1.54668e-04  4.05379e-05 -2.46565e-05
       H -1.00692e-04  3.52789e-04  6.91160e-05
2
# CELL(abcABC):  188.97261   188.97261   188.97261    90.00000    90.00000    90.00000  Step:         176  Bead:       0 v_centroid{atomic_unit}  cell{atomic_unit}
       O -1.62786e-04  4.80964e-05  5.58889e-07
       H  2.81568e-05  2.32810e-04 -3.31136e-04
2
# CELL(abcABC):  188.97261   188.97261   188.97261    90.00000    90.00000    90.00000  Step:         180  Bead:       0 v_centroid{atomic_unit}  cell{atomic_unit}
       O -1.65567e-04  5.64794e-05  6.39983e-06
       H  7.23033e-05  9.97425e-05 -4.23852e-04
2
# CELL(abcABC):  188.97261   188.97261   188.97261    90.00000    90.00000    90.00000  Step:         184  Bead:       0 v_centroid{atomic_unit}  cell{atomic_unit}
       O -1.64238e-04  6.17466e-05 -7.61322e-06
       H  5.12051e-05  1.61357e-05 -2.01417e-04
2
# CELL(abcABC):  188.97261   188.97261   188.97261    90.00000    90.00000    90.00000  Step:         188  Bead:       0 v_centroid{atomic_unit}  cell{atomic_unit}
       O -1.60042e-04  6.24463e-05 -3.04506e-05
       H -1.53924e-05  5.02833e-06  1.61088e-04
2
# CELL(abcABC):  188.97261   188.97261   188.97261    90.00000    90.00000    90.00000  Step:         192  Bead:       0 v_centroid{atomic_unit}  cell{atomic_unit}
       O -1.54282e-04  5.73072e-05 -5.21973e-05
       H -1.06823e-04  8.66029e-05  5.06282e-04
2
# CELL(abcABC):  188.97261   188.97261   188.97261    90.00000    90.00000    90.00000  Step:         196  Bead:       0 v_centroid{atomic_unit}  cell{atomic_unit}
       O -1.49003e-04  4.84522e-05 -6.48010e-05
       H -1.90624e-04  2.27162e-04  7.06345e-04
2
# CELL(abcABC):  188.97261   188.97261   188.97261    90.00000    90.00000    90.00000  Step:         200  Bead:       0 v_centroid{atomic_unit}  cell{atomic_unit}
       O -1.45946e-04  4.23054e-05 -6.33306e-05
       H -2.39142e-04  3.24732e-04  6.83005e-04
2
# CELL(abcABC):  188.97261   188.97261   188.97261    90.00000    90.00000    90.00000  Step:         204  Bead:       0 v_centroid{atomic_unit}  cell{atomic_unit}
       O -1.46127e-04  4.10075e-05 -4.44474e-05
       H -2.36271e-04  3.45334e-04  3.83265e-04
2
# CELL(abcABC):  188.97261   188.97261   188.97261    90.00000    90.00000    90.00000  Step:         208  Bead:       0 v_centroid{atomic_unit}  cell{atomic_unit}
       O -1.49574e-04  4.38482e-05 -1.31702e-05
       H -1.81555e-04  3.00242e-04 -1.13209e-04
2
# CELL(abcABC):  188.97261   188.97261   188.97261    90.00000    90.00000    90.00000  Step:         212  Bead:       0 v_centroid{atomic_unit}  cell{atomic_unit}
       O -1.55338e-04  4.63872e-05  1.49060e-05
       H -9.00688e-05  2.59940e-04 -5.58874e-04
2
# CELL(abcABC):  188.97261   188.97261   188.97261    90.00000    90.00000    90.00000  Step:         216  Bead:       0 v_centroid{atomic_unit}  cell{atomic_unit}
       O -1.57255e-04  4.84234e-05  2.21725e-05
       H -5.96413e-05  2.27618e-04 -6.74217e-04
2
# CELL(abcABC):  188.97261   188.97261   188.97261    90.00000    90.00000    90.00000  Step:         220  Bead:       0 v_centroid{atomic_unit}  cell{atomic_unit}
       O -1.57055e-04  5.08125e-05  8.69966e-06
       H -6.28083e-05  1.89696e-04 -4.60358e-04
2
# CELL(abcABC):  188.97261   188.97261   188.97261    90.00000    90.00000    90.00000  Step:         224  Bead:       0 v_centroid{atomic_unit}  cell{atomic_unit}
       O -1.58785e-04  4.93192e-05 -1.34644e-05
       H -3.53492e-05  2.13400e-04 -1.08540e-04
2
# CELL(abcABC):  188.97261   188.97261   188.97261    90.00000    90.00000    90.00000  Step:         228  Bead:       0 v_centroid{atomic_unit}  cell{atomic_unit}
       O -1.59777e-04  4.39414e-05 -3.83866e-05
       H -1.95956e-05  2.98763e-04  2.87060e-04
2
# CELL(abcABC):  188.97261   188.97261   188.97261    90.00000    90.00000    90.00000  Step:         232  Bead:       0 v_centroid{atomic_unit}  cell{atomic_unit}
       O -1.57787e-04  3.96316e-05 -5.88083e-05
       H -5.11970e-05  3.67174e-04  6.11221e-04
2
# CELL(abcABC):  188.97261   188.97261   188.97261    90.00000    90.00000    90.00000  Step:         236  Bead:       0 v_centroid{atomic_unit}  cell{atomic_unit}
       O -1.56798e-04  3.99494e-05 -6.12138e-05
       H -6.68900e-05  3.62130e-04  6.49404e-04
2
# CELL(abcABC):  188.97261   188.97261   188.97261    90.00000    90.00000    90.00000  Step:         240  Bead:       0 v_centroid{atomic_unit}  cell{atomic_unit}
       O -1.58300e-04  4.46154e-05 -4.11670e-05
       H -4.30510e-05  2.88065e-04  3.31194e-04
2
# CELL(abcABC):  188.97261   188.97261   188.97261    90.00000    90.00000    90.00000  Step:         244  Bead:       0 v_centroid{atomic_unit}  cell{atomic_unit}
       O -1.61009e-04  5.06641e-05 -9.00380e-06
       H -5.13748e-08  1.92051e-04 -1.79344e-04
2
# CELL(abcABC):  188.97261   188.97261   188.97261    90.00000    90.00000    90.00000  Step:         248  Bead:       0 v_centroid{atomic_unit}  cell{atomic_unit}
       O -1.66160e-04  5.53510e-05  2.06368e-05
       H  8.17229e-05  1.17655e-04 -6.49840e-04
2
# CELL(abcABC):  188.97261   188.97261   188.97261    90.00000    90.00000    90.00000  Step:         252  Bead:       0 v_centroid{atomic_unit}  cell{atomic_unit}
       O -1.69544e-04  5.73851e-05  3.32884e-05
       H  1.35436e-04  8.53674e-05 -8.50665e-04
2
# CELL(abcABC):  188.97261   188.97261   188.97261    90.00000    90.00000    90.00000  Step:         256  Bead:       0 v_centroid{atomic_unit}  cell{atomic_unit}
       O -1.68850e-04  5.60798e-05  2.56521e-05
       H  1.24410e-04  1.06087e-04 -7.29449e-04
2
# CELL(abcABC):  188.97261   188.97261   188.97261    90.00000    90.00000    90.00000  Step:         260  Bead:       0 v_centroid{atomic_unit}  cell{atomic_unit}
       O -1.64312e-04  5.24059e-05  3.39242e-06
       H  5.23864e-05  1.64403e-04 -3.76114e-04
2
# CELL(abcABC):  188.97261   188.97261   188.97261    90.00000    90.00000    90.00000  Step:         264  Bead:       0 v_centroid{atomic_unit}  cell{atomic_unit}
       O -1.55969e-04  5.06184e-05 -2.46115e-05
       H -8.00524e-05  1.92777e-04  6.84030e-05
2
# CELL(abcABC):  188.97261   188.97261   188.97261    90.00000    90.00000    90.00000  Step:         268  Bead:       0 v_centroid{atomic_unit}  cell{atomic_unit}
       O -1.46933e-04  5.23709e-05 -4.72966e-05
       H -2.23480e-04  1.64959e-04  4.28492e-04
2
# CELL(abcABC):  188.97261   188.97261   188.97261    90.00000    90.00000    90.00000  Step:         272  Bead:       0 v_centroid{atomic_unit}  cell{atomic_unit}
       O -1.43039e-04  5.33121e-05 -5.51242e-05
       H -2.85287e-04  1.50018e-04  5.52742e-04
2
# CELL(abcABC):  188.97261   188.97261   188.97261    90.00000    90.00000    90.00000  Step:         276  Bead:       0 v_centroid{atomic_unit}  cell{atomic_unit}
       O -1.46974e-04  5.22815e-05 -4.50823e-05
       H -2.22826e-04  1.66378e-04  3.93343e-04
2
# CELL(abcABC):  188.97261   188.97261   188.97261    90.00000    90.00000    90.00000  Step:         280  Bead:       0 v_centroid{atomic_unit}  cell{atomic_unit}
       O -1.56524e-04  5.13457e-05 -2.01794e-05
       H -7.12450e-05  1.81233e-04 -1.95056e-06
2
# CELL(abcABC):  188.97261   188.97261   188.97261    90.00000    90.00000    90.00000  Step:         284  Bead:       0 v_centroid{atomic_unit}  cell{atomic_unit}
       O -1.66924e-04  4.84908e-05  4.75023e-06
       H  9.38452e-05  2.26549e-04 -3.97667e-04
2
# CELL(abcABC):  188.97261   188.97261   188.97261    90.00000    90.00000    90.00000  Step:         288  Bead:       0 v_centroid{atomic_unit}  cell{atomic_unit}
       O -1.73237e-04  4.18214e-05  1.76523e-05
       H  1.94057e-04  3.32415e-04 -6.02466e-04
2
# CELL(abcABC):  188.97261   188.97261   188.97261    90.00000    90.00000    90.00000  Step:         292  Bead:       0 v_centroid{atomic_unit}  cell{atomic_unit}
       O -1.69391e-04  3.90635e-05  1.14618e-05
       H  1.33011e-04  3.76192e-04 -5.04203e-04
2
# CELL(abcABC):  188.97261   188.97261   188.97261    90.00000    90.00000    90.00000  Step:         296  Bead:       0 v_centroid{atomic_unit}  cell{atomic_unit}
       O -1.57499e-04  4.11941e-05 -1.07174e-05
       H -5.57620e-05  3.42372e-04 -1.52144e-04
2
# CELL(abcABC):  188.97261   188.97261   188.97261    90.00000    90.00000    90.00000  Step:         300  Bead:       0 v_centroid{atomic_unit}  cell{atomic_unit}
       O -1.44078e-04  4.35215e-05 -3.76776e-05
       H -2.68804e-04  3.05429e-04  2.75805e-04
2
# CELL(abcABC):  188.97261   188.97261   188.97261    90.00000    90.00000    90.00000  Step:         304  Bead:       0 v_centroid{atomic_unit}  cell{atomic_unit}
       O -1.35072e-04  4.74847e-05 -5.72895e-05
       H -4.11751e-04  2.42520e-04  5.87112e-04
2
# CELL(abcABC):  188.97261   188.97261   188.97261    90.00000    90.00000    90.00000  Step:         308  Bead:       0 v_centroid{atomic_unit}  cell{atomic_unit}
       O -1.31086e-04  5.34725e-05 -6.69130e-05
       H -4.75031e-04  1.47473e-04  7.39869e-04
2
# CELL(abcABC):  188.97261   188.97261   188.97261    90.00000    90.00000    90.00000  Step:         312  Bead:       0 v_centroid{atomic_unit}  cell{atomic_unit}
       O -1.34352e-04  5.62986e-05 -6.24232e-05
       H -4.23186e-04  1.02613e-04  6.68602e-04
2
# CELL(abcABC):  188.97261   188.97261   188.97261    90.00000    90.00000    90.00000  Step:         316  Bead:       0 v_centroid{atomic_unit}  cell{atomic_unit}
       O -1.47446e-04  5.20696e-05 -3.87947e-05
       H -2.15338e-04  1.69742e-04  2.93537e-04
2
# CELL(abcABC):  188.97261   188.97261   188.97261    90.00000    90.00000    90.00000  Step:         320  Bead:       0 v_centroid{atomic_unit}  cell{atomic_unit}
       O -1.62986e-04  4.59020e-05 -1.31403e-05
       H  3.13345e-05  2.67642e-04 -1.13684e-04
2
# CELL(abcABC):  188.97261   188.97261   188.97261    90.00000    90.00000    90.00000  Step:         324  Bead:       0 v_centroid{atomic_unit}  cell{atomic_unit}
       O -1.70241e-04  4.19830e-05 -1.77374e-06
       H  1.46492e-04  3.29849e-04 -2.94110e-04
2
# CELL(abcABC):  188.97261   188.97261   188.97261    90.00000    90.00000    90.00000  Step:         328  Bead:       0 v_centroid{atomic_unit}  cell{atomic_unit}
       O -1.69121e-04  4.15563e-05 -2.83548e-06
       H  1.28725e-04  3.36623e-04 -2.77256e-04
2
# CELL(abcABC):  188.97261   188.97261   188.97261    90.00000    90.00000    90.00000  Step:         332  Bead:       0 v_centroid{atomic_unit}  cell{atomic_unit}
       O -1.59252e-04  4.51452e-05 -1.78230e-05
       H -2.79383e-05  2.79655e-04 -3.93537e-05
2
# CELL(abcABC):  188.97261   188.97261   188.97261    90.00000    90.00000    90.00000  Step:         336  Bead:       0 v_centroid{atomic_unit}  cell{atomic_unit}
       O -1.44140e-04  5.16149e-05 -3.82923e-05
       H -2.67808e-04  1.76959e-04  2.85563e-04
2
# CELL(abcABC):  188.97261   188.97261   188.97261    90.00000    90.00000    90.00000  Step:         340  Bead:       0 v_centroid{atomic_unit}  cell{atomic_unit}
       O -1.30744e-04  5.97407e-05 -5.33439e-05
       H -4.80462e-04  4.79751e-05  5.24482e-04
2
# CELL(abcABC):  188.97261   188.97261   188.97261    90.00000    90.00000    90.00000  Step:         344  Bead:       0 v_centroid{atomic_unit}  cell{atomic_unit}
       O -1.24883e-04  6.67426e-05 -5.97990e-05
       H -5.73492e-04 -6.31689e-05  6.26946e-04
2
# CELL(abcABC):  188.97261   188.97261   188.97261    90.00000    90.00000    90.00000  Step:         348  Bead:       0 v_centroid{atomic_unit}  cell{atomic_unit}
       O -1.33662e-04  6.51360e-05 -5.27188e-05
       H -4.34129e-04 -3.76667e-05  5.14560e-04
2
# CELL(abcABC):  188.97261   188.97261   188.97261    90.00000    90.00000    90.00000  Step:         352  Bead:       0 v_centroid{atomic_unit}  cell{atomic_unit}
       O -1.55804e-04  5.30382e-05 -3.11894e-05
       H -8.26704e-05  1.54367e-04  1.72816e-04
2
# CELL(abcABC):  188.97261   188.97261   188.97261    90.00000    90.00000    90.00000  Step:         356  Bead:       0 v_centroid{atomic_unit}  cell{atomic_unit}
       O -1.73908e-04  4.04907e-05 -9.99785e-06
       H  2.04703e-04  3.53537e-04 -1.63565e-04
2
# CELL(abcABC):  188.97261   188.97261   188.97261    90.00000    90.00000    90.00000  Step:         360  Bead:       0 v_centroid{atomic_unit}  cell{atomic_unit}
       O -1.81463e-04  3.36823e-05  2.82244e-07
       H  3.24620e-04  4.61610e-04 -3.26745e-04
2
# CELL(abcABC):  188.97261   188.97261   188.97261    90.00000    90.00000    90.00000  Step:         364  Bead:       0 v_centroid{atomic_unit}  cell{atomic_unit}
       O -1.80924e-04  3.27440e-05  4.13071e-07
       H  3.16071e-04  4.76504e-04 -3.28822e-04
2
# CELL(abcABC):  188.97261   188.97261   188.97261    90.00000    90.00000    90.00000  Step:         368  Bead:       0 v_centroid{atomic_unit}  cell{atomic_unit}
       O -1.70419e-04  3.84021e-05 -9.14322e-06
       H  1.49315e-04  3.86691e-04 -1.77131e-04
2
# CELL(abcABC):  188.97261   188.97261   188.97261    90.00000    90.00000    90.00000  Step:         372  Bead:       0 v_centroid{atomic_unit}  cell{atomic_unit}
       O -1.53430e-04  4.83040e-05 -2.52629e-05
       H -1.20355e-04  2.29515e-04  7.87430e-05
2
# CELL(abcABC):  188.97261   188.97261   188.97261    90.00000    90.00000    90.00000  Step:         376  Bead:       0 v_centroid{atomic_unit}  cell{atomic_unit}
       O -1.38407e-04  5.83427e-05 -3.94014e-05
       H -3.58819e-04  7.01662e-05  3.03168e-04
2
# CELL(abcABC):  188.97261   188.97261   188.97261    90.00000    90.00000    90.00000  Step:         380  Bead:       0 v_centroid{atomic_unit}  cell{atomic_unit}
       O -1.32426e-04  6.47930e-05 -4.32188e-05
       H -4.53761e-04 -3.22221e-05  3.63762e-04
2
# CELL(abcABC):  188.97261   188.97261   188.97261    90.00000    90.00000    90.00000  Step:         384  Bead:       0 v_centroid{atomic_unit}  cell{atomic_unit}
       O -1.35794e-04  6.47127e-05 -3.73960e-05
       H -4.00287e-04 -3.09477e-05  2.71336e-04
2
# CELL(abcABC):  188.97261   188.97261   188.97261    90.00000    90.00000    90.00000  Step:         388  Bead:       0 v_centroid{atomic_unit}  cell{atomic_unit}
       O -1.48376e-04  5.48787e-05 -2.04384e-05
       H -2.00568e-04  1.25151e-04  2.16149e-06
2
# CELL(abcABC):  188.97261   188.97261   188.97261    90.00000    90.00000    90.00000  Step:         392  Bead:       0 v_centroid{atomic_unit}  cell{atomic_unit}
       O -1.64692e-04  3.92135e-05  1.29770e-06
       H  5.84209e-05  3.73812e-04 -3.42864e-04
2
# CELL(abcABC):  188.97261   188.97261   188.97261    90.00000    90.00000    90.00000  Step:         396  Bead:       0 v_centroid{atomic_unit}  cell{atomic_unit}
       O -1.75548e-04  2.66830e-05  1.61091e-05
       H  2.30741e-04  5.72712e-04 -5.77970e-04
2
# CELL(abcABC):  188.97261   188.97261   188.97261    90.00000    90.00000    90.00000  Step:         400  Bead:       0 v_centroid{atomic_unit}  cell{atomic_unit}
       O -1.77353e-04  2.43881e-05  2.01576e-05
       H  2.59387e-04  6.09140e-04 -6.42233e-04
2
# CELL(abcABC):  188.97261   188.97261   188.97261    90.00000    90.00000    90.00000  Step:         404  Bead:       0 v_centroid{atomic_unit}  cell{atomic_unit}
       O -1.70192e-04  3.16039e-05  1.14984e-05
       H  1.45712e-04  4.94601e-04 -5.04783e-04
2
# CELL(abcABC):  188.97261   188.97261   188.97261    90.00000    90.00000    90.00000  Step:         408  Bead:       0 v_centroid{atomic_unit}  cell{atomic_unit}
       O -1.57087e-04  4.21606e-05 -7.76381e-06
       H -6.23032e-05  3.27032e-04 -1.99027e-04
2
# CELL(abcABC):  188.97261   188.97261   188.97261    90.00000    90.00000    90.00000  Step:         412  Bead:       0 v_centroid{atomic_unit}  cell{atomic_unit}
       O -1.46255e-04  5.18709e-05 -2.40130e-05
       H -2.34243e-04  1.72896e-04  5.89015e-05
2
# CELL(abcABC):  188.97261   188.97261   188.97261    90.00000    90.00000    90.00000  Step:         416  Bead:       0 v_centroid{atomic_unit}  cell{atomic_unit}
       O -1.38905e-04  5.82631e-05 -3.41308e-05
       H -3.50911e-04  7.14300e-05  2.19506e-04
2
# CELL(abcABC):  188.97261   188.97261   188.97261    90.00000    90.00000    90.00000  Step:         420  Bead:       0 v_centroid{atomic_unit}  cell{atomic_unit}
       O -1.34500e-04  5.92576e-05 -4.10350e-05
       H -4.20829e-04  5.56432e-05  3.29099e-04
2
# CELL(abcABC):  188.97261   188.97261   188.97261    90.00000    90.00000    90.00000  Step:         424  Bead:       0 v_centroid{atomic_unit}  cell{atomic_unit}
       O -1.38388e-04  5.53660e-05 -3.87615e-05
       H -3.59110e-04  1.17416e-04  2.93011e-04
2
# CELL(abcABC):  188.97261   188.97261   188.97261    90.00000    90.00000    90.00000  Step:         428  Bead:       0 v_centroid{atomic_unit}  cell{atomic_unit}
       O -1.52516e-04  4.86651e-05 -2.22518e-05
       H -1.34855e-04  2.23783e-04  3.09464e-05
2
# CELL(abcABC):  188.97261   188.97261   188.97261    90.00000    90.00000    90.00000  Step:         432  Bead:       0 v_centroid{atomic_unit}  cell{atomic_unit}
       O -1.66327e-04  4.26635e-05 -4.83656e-06
       H  8.43705e-05  3.19049e-04 -2.45492e-04
2
# CELL(abcABC):  188.97261   188.97261   188.97261    90.00000    90.00000    90.00000  Step:         436  Bead:       0 v_centroid{atomic_unit}  cell{atomic_unit}
       O -1.70807e-04  4.22847e-05 -3.44687e-07
       H  1.55478e-04  3.25061e-04 -3.16794e-04
2
# CELL(abcABC):  188.97261   188.97261   188.97261    90.00000    90.00000    90.00000  Step:         440  Bead:       0 v_centroid{atomic_unit}  cell{atomic_unit}
       O -1.66580e-04  4.69859e-05 -8.49479e-06
       H  8.83853e-05  2.50436e-04 -1.87424e-04
2
# CELL(abcABC):  188.97261   188.97261   188.97261    90.00000    90.00000    90.00000  Step:         444  Bead:       0 v_centroid{atomic_unit}  cell{atomic_unit}
       O -1.58792e-04  5.19198e-05 -1.94497e-05
       H -3.52337e-05  1.72119e-04 -1.35322e-05
2
# CELL(abcABC):  188.97261   188.97261   188.97261    90.00000    90.00000    90.00000  Step:         448  Bead:       0 v_centroid{atomic_unit}  cell{atomic_unit}
       O -1.49155e-04  5.53763e-05 -3.29864e-05
       H -1.88211e-04  1.17253e-04  2.01341e-04
2
# CELL(abcABC):  188.97261   188.97261   188.97261    90.00000    90.00000    90.00000  Step:         452  Bead:       0 v_centroid{atomic_unit}  cell{atomic_unit}
       O -1.39600e-04  5.85975e-05 -4.88758e-05
       H -3.39887e-04  6.61226e-05  4.53559e-04
2