2
# CELL(abcABC):  188.97261   188.97261   188.97261    90.00000    90.00000    90.00000  Step:           0  Bead:       0 x_centroid{angstrom}  cell{atomic_unit}
       O  3.21303e+00  1.23787e+00  2.12970e+00
       H  3.45421e+00  1.13953e+00  1.21050e+00
2
# CELL(abcABC):  188.97261   188.97261   188.97261    90.00000    90.00000    90.00000  Step:           4  Bead:       0 x_centroid{angstrom}  cell{atomic_unit}
       O  3.20948e+00  1.23907e+00  2.12961e+00
       H  3.45461e+00  1.14221e+00  1.20488e+00
2
# CELL(abcABC):  188.97261   188.97261   188.97261    90.00000    90.00000    90.00000  Step:           8  Bead:       0 x_centroid{angstrom}  cell{atomic_unit}
       O  3.20602e+00  1.24015e+00  2.12921e+00
       H  3.45360e+00  1.14687e+00  1.20417e+00
2
# CELL(abcABC):  188.97261   188.97261   188.97261    90.00000    90.00000    90.00000  Step:          12  Bead:       0 x_centroid{angstrom}  cell{atomic_unit}
       O  3.20268e+00  1.24120e+00  2.12851e+00
       H  3.45070e+00  1.15200e+00  1.20828e+00
2
# CELL(abcABC):  188.97261   188.97261   188.97261    90.00000    90.00000    90.00000  Step:          16  Bead:       0 x_centroid{angstrom}  cell{atomic_unit}
       O  3.19946e+00  1.24231e+00  2.12759e+00
       H  3.44591e+00  1.15615e+00  1.21591e+00
2
# CELL(abcABC):  188.97261   188.97261   188.97261    90.00000    90.00000    90.00000  Step:          20  Bead:       0 x_centroid{angstrom}  cell{atomic_unit}
       O  3.19629e+00  1.24350e+00  2.12650e+00
       H  3.44023e+00  1.15916e+00  1.22606e+00
2
# CELL(abcABC):  188.97261   188.97261   188.97261    90.00000    90.00000    90.00000  Step:          24  Bead:       0 x_centroid{angstrom}  cell{atomic_unit}
       O  3.19304e+00  1.24478e+00  2.12554e+00
       H  3.43591e+00  1.16068e+00  1.23433e+00
2
# CELL(abcABC):  188.97261   188.97261   188.97261    90.00000    90.00000    90.00000  Step:          28  Bead:       0 x_centroid{angstrom}  cell{atomic_unit}
       O  3.18963e+00  1.24609e+00  2.12495e+00
       H  3.43425e+00  1.16157e+00  1.23657e+00
2
# CELL(abcABC):  188.97261   188.97261   188.97261    90.00000    90.00000    90.00000  Step:          32  Bead:       0 x_centroid{angstrom}  cell{atomic_unit}
       O  3.18608e+00  1.24734e+00  2.12468e+00
       H  3.43466e+00  1.16353e+00  1.23377e+00
2
# CELL(abcABC):  188.97261   188.97261   188.97261    90.00000    90.00000    90.00000  Step:          36  Bead:       0 x_centroid{angstrom}  cell{atomic_unit}
       O  3.18245e+00  1.24849e+00  2.12456e+00
       H  3.43638e+00  1.16713e+00  1.22865e+00
2
# CELL(abcABC):  188.97261   188.97261   188.97261    90.00000    90.00000    90.00000  Step:          40  Bead:       0 x_centroid{angstrom}  cell{atomic_unit}
       O  3.17886e+00  1.24955e+00  2.12435e+00
       H  3.43742e+00  1.17200e+00  1.22498e+00
2
# CELL(abcABC):  188.97261   188.97261   188.97261    90.00000    90.00000    90.00000  Step:          44  Bead:       0 x_centroid{angstrom}  cell{atomic_unit}
       O  3.17545e+00  1.25059e+00  2.12379e+00
       H  3.43561e+00  1.17729e+00  1.22683e+00
2
# CELL(abcABC):  188.97261   188.97261   188.97261    90.00000    90.00000    90.00000  Step:          48  Bead:       0 x_centroid{angstrom}  cell{atomic_unit}
       O  3.17221e+00  1.25169e+00  2.12286e+00
       H  3.43116e+00  1.18170e+00  1.23445e+00
2
# CELL(abcABC):  188.97261   188.97261   188.97261    90.00000    90.00000    90.00000  Step:          52  Bead:       0 x_centroid{angstrom}  cell{atomic_unit}
       O  3.16907e+00  1.25287e+00  2.12172e+00
       H  3.42499e+00  1.18468e+00  1.24562e+00
2
# CELL(abcABC):  188.97261   188.97261   188.97261    90.00000    90.00000    90.00000  Step:          56  Bead:       0 x_centroid{angstrom}  cell{atomic_unit}
       O  3.16596e+00  1.25416e+00  2.12062e+00
       H  3.41844e+00  1.18612e+00  1.25602e+00
2
# CELL(abcABC):  188.97261   188.97261   188.97261    90.00000    90.00000    90.00000  Step:          60  Bead:       0 x_centroid{angstrom}  cell{atomic_unit}
       O  3.16274e+00  1.25550e+00  2.11980e+00
       H  3.41373e+00  1.18664e+00  1.26188e+00
2
# CELL(abcABC):  188.97261   188.97261   188.97261    90.00000    90.00000    90.00000  Step:          64  Bead:       0 x_centroid{angstrom}  cell{atomic_unit}
       O  3.15922e+00  1.25676e+00  2.11938e+00
       H  3.41368e+00  1.18838e+00  1.26156e+00
2
# CELL(abcABC):  188.97261   188.97261   188.97261    90.00000    90.00000    90.00000  Step:          68  Bead:       0 x_centroid{angstrom}  cell{atomic_unit}
       O  3.15539e+00  1.25789e+00  2.11935e+00
       H  3.41852e+00  1.19224e+00  1.25505e+00
2
# CELL(abcABC):  188.97261   188.97261   188.97261    90.00000    90.00000    90.00000  Step:          72  Bead:       0 x_centroid{angstrom}  cell{atomic_unit}
       O  3.15148e+00  1.25893e+00  2.11949e+00
       H  3.42477e+00  1.19747e+00  1.24573e+00
2
# CELL(abcABC):  188.97261   188.97261   188.97261    90.00000    90.00000    90.00000  Step:          76  Bead:       0 x_centroid{angstrom}  cell{atomic_unit}
       O  3.14770e+00  1.25994e+00  2.11951e+00
       H  3.42887e+00  1.20328e+00  1.23832e+00
2
# CELL(abcABC):  188.97261   188.97261   188.97261    90.00000    90.00000    90.00000  Step:          80  Bead:       0 x_centroid{angstrom}  cell{atomic_unit}
       O  3.14418e+00  1.26095e+00  2.11911e+00
       H  3.42870e+00  1.20898e+00  1.23758e+00
2
# CELL(abcABC):  188.97261   188.97261   188.97261    90.00000    90.00000    90.00000  Step:          84  Bead:       0 x_centroid{angstrom}  cell{atomic_unit}
       O  3.14094e+00  1.26200e+00  2.11826e+00
       H  3.42435e+00  1.21415e+00  1.24411e+00
2
# CELL(abcABC):  188.97261   188.97261   188.97261    90.00000    90.00000    90.00000  Step:          88  Bead:       0 x_centroid{angstrom}  cell{atomic_unit}
       O  3.13783e+00  1.26315e+00  2.11727e+00
       H  3.41778e+00  1.21774e+00  1.25271e+00
2
# CELL(abcABC):  188.97261   188.97261   188.97261    90.00000    90.00000    90.00000  Step:          92  Bead:       0 x_centroid{angstrom}  cell{atomic_unit}
       O  3.13474e+00  1.26441e+00  2.11636e+00
       H  3.41089e+00  1.21959e+00  1.26010e+00
2
# CELL(abcABC):  188.97261   188.97261   188.97261    90.00000    90.00000    90.00000  Step:          96  Bead:       0 x_centroid{angstrom}  cell{atomic_unit}
       O  3.13151e+00  1.26567e+00  2.11565e+00
       H  3.40622e+00  1.22124e+00  1.26434e+00
2
# CELL(abcABC):  188.97261   188.97261   188.97261    90.00000    90.00000    90.00000  Step:         100  Bead:       0 x_centroid{angstrom}  cell{atomic_unit}
       O  3.12791e+00  1.26686e+00  2.11544e+00
       H  3.40747e+00  1.22423e+00  1.26063e+00
2
# CELL(abcABC):  188.97261   188.97261   188.97261    90.00000    90.00000    90.00000  Step:         104  Bead:       0 x_centroid{angstrom}  cell{atomic_unit}
       O  3.12393e+00  1.26798e+00  2.11581e+00
       H  3.41465e+00  1.22831e+00  1.24775e+00
2
# CELL(abcABC):  188.97261   188.97261   188.97261    90.00000    90.00000    90.00000  Step:         108  Bead:       0 x_centroid{angstrom}  cell{atomic_unit}
       O  3.11986e+00  1.26907e+00  2.11640e+00
       H  3.42343e+00  1.23266e+00  1.23126e+00
2
# CELL(abcABC):  188.97261   188.97261   188.97261    90.00000    90.00000    90.00000  Step:         112  Bead:       0 x_centroid{angstrom}  cell{atomic_unit}
       O  3.11592e+00  1.27016e+00  2.11675e+00
       H  3.42999e+00  1.23718e+00  1.21868e+00
2
# CELL(abcABC):  188.97261   188.97261   188.97261    90.00000    90.00000    90.00000  Step:         116  Bead:       0 x_centroid{angstrom}  cell{atomic_unit}
       O  3.11223e+00  1.27129e+00  2.11662e+00
       H  3.43265e+00  1.24109e+00  1.21374e+00
2
# CELL(abcABC):  188.97261   188.97261   188.97261    90.00000    90.00000    90.00000  Step:         120  Bead:       0 x_centroid{angstrom}  cell{atomic_unit}
       O  3.10881e+00  1.27251e+00  2.11606e+00
       H  3.43102e+00  1.24356e+00  1.21548e+00
2
# CELL(abcABC):  188.97261   188.97261   188.97261    90.00000    90.00000    90.00000  Step:         124  Bead:       0 x_centroid{angstrom}  cell{atomic_unit}
       O  3.10560e+00  1.27379e+00  2.11523e+00
       H  3.42619e+00  1.24501e+00  1.22164e+00
2
# CELL(abcABC):  188.97261   188.97261   188.97261    90.00000    90.00000    90.00000  Step:         128  Bead:       0 x_centroid{angstrom}  cell{atomic_unit}
       O  3.10242e+00  1.27503e+00  2.11428e+00
       H  3.42070e+00  1.24715e+00  1.22970e+00
2
# CELL(abcABC):  188.97261   188.97261   188.97261    90.00000    90.00000    90.00000  Step:         132  Bead:       0 x_centroid{angstrom}  cell{atomic_unit}
       O  3.09913e+00  1.27618e+00  2.11345e+00
       H  3.41696e+00  1.25071e+00  1.23578e+00
2
# CELL(abcABC):  188.97261   188.97261   188.97261    90.00000    90.00000    90.00000  Step:         136  Bead:       0 x_centroid{angstrom}  cell{atomic_unit}
       O  3.09563e+00  1.27725e+00  2.11306e+00
       H  3.41661e+00  1.25543e+00  1.23497e+00
2
# CELL(abcABC):  188.97261   188.97261   188.97261    90.00000    90.00000    90.00000  Step:         140  Bead:       0 x_centroid{angstrom}  cell{atomic_unit}
       O  3.09187e+00  1.27828e+00  2.11319e+00
       H  3.42043e+00  1.26083e+00  1.22580e+00
2
# CELL(abcABC):  188.97261   188.97261   188.97261    90.00000    90.00000    90.00000  Step:         144  Bead:       0 x_centroid{angstrom}  cell{atomic_unit}
       O  3.08798e+00  1.27935e+00  2.11352e+00
       H  3.42624e+00  1.26575e+00  1.21356e+00
2
# CELL(abcABC):  188.97261   188.97261   188.97261    90.00000    90.00000    90.00000  Step:         148  Bead:       0 x_centroid{angstrom}  cell{atomic_unit}
       O  3.08418e+00  1.28050e+00  2.11356e+00
       H  3.43058e+00  1.26928e+00  1.20590e+00
2
# CELL(abcABC):  188.97261   188.97261   188.97261    90.00000    90.00000    90.00000  Step:         152  Bead:       0 x_centroid{angstrom}  cell{atomic_unit}
       O  3.08056e+00  1.28170e+00  2.11313e+00
       H  3.43225e+00  1.27203e+00  1.20563e+00
2
# CELL(abcABC):  188.97261   188.97261   188.97261    90.00000    90.00000    90.00000  Step:         156  Bead:       0 x_centroid{angstrom}  cell{atomic_unit}
       O  3.07712e+00  1.28286e+00  2.11226e+00
       H  3.43095e+00  1.27535e+00  1.21245e+00
2
# CELL(abcABC):  188.97261   188.97261   188.97261    90.00000    90.00000    90.00000  Step:         160  Bead:       0 x_centroid{angstrom}  cell{atomic_unit}
       O  3.07386e+00  1.28394e+00  2.11102e+00
       H  3.42678e+00  1.28011e+00  1.22507e+00
2
# CELL(abcABC):  188.97261   188.97261   188.97261    90.00000    90.00000    90.00000  Step:         164  Bead:       0 x_centroid{angstrom}  cell{atomic_unit}
       O  3.07069e+00  1.28491e+00  2.10959e+00
       H  3.42105e+00  1.28648e+00  1.24069e+00
2
# CELL(abcABC):  188.97261   188.97261   188.97261    90.00000    90.00000    90.00000  Step:         168  Bead:       0 x_centroid{angstrom}  cell{atomic_unit}
       O  3.06753e+00  1.28579e+00  2.10827e+00
       H  3.41539e+00  1.29420e+00  1.25453e+00
2
# CELL(abcABC):  188.97261   188.97261   188.97261    90.00000    90.00000    90.00000  Step:         172  Bead:       0 x_centroid{angstrom}  cell{atomic_unit}
       O  3.06424e+00  1.28665e+00  2.10742e+00
       H  3.41164e+00  1.30238e+00  1.26105e+00
2
# CELL(abcABC):  188.97261   188.97261   188.97261    90.00000    90.00000    90.00000  Step:         176  Bead:       0 x_centroid{angstrom}  cell{atomic_unit}
       O  3.06076e+00  1.28761e+00  2.10718e+00
       H  3.41099e+00  1.30892e+00  1.25775e+00
2
# CELL(abcABC):  188.97261   188.97261   188.97261    90.00000    90.00000    90.00000  Step:         180  Bead:       0 x_centroid{angstrom}  cell{atomic_unit}
       O  3.05716e+00  1.28876e+00  2.10731e+00
       H  3.41225e+00  1.31249e+00  1.24875e+00
2
# CELL(abcABC):  188.97261   188.97261   188.97261    90.00000    90.00000    90.00000  Step:         184  Bead:       0 x_centroid{angstrom}  cell{atomic_unit}
       O  3.05354e+00  1.29006e+00  2.10732e+00
       H  3.41371e+00  1.31363e+00  1.24142e+00
2
# CELL(abcABC):  188.97261   188.97261   188.97261    90.00000    90.00000    90.00000  Step:         188  Bead:       0 x_centroid{angstrom}  cell{atomic_unit}
       O  3.04999e+00  1.29143e+00  2.10691e+00
       H  3.41418e+00  1.31369e+00  1.24088e+00
2
# CELL(abcABC):  188.97261   188.97261   188.97261    90.00000    90.00000    90.00000  Step:         192  Bead:       0 x_centroid{angstrom}  cell{atomic_unit}
       O  3.04655e+00  1.29275e+00  2.10600e+00
       H  3.41286e+00  1.31450e+00  1.24835e+00
2
# CELL(abcABC):  188.97261   188.97261   188.97261    90.00000    90.00000    90.00000  Step:         196  Bead:       0 x_centroid{angstrom}  cell{atomic_unit}
       O  3.04324e+00  1.29391e+00  2.10469e+00
       H  3.40956e+00  1.31791e+00  1.26201e+00
2
# CELL(abcABC):  188.97261   188.97261   188.97261    90.00000    90.00000    90.00000  Step:         200  Bead:       0 x_centroid{angstrom}  cell{atomic_unit}
       O  3.04002e+00  1.29489e+00  2.10326e+00
       H  3.40476e+00  1.32411e+00  1.27773e+00
2
# CELL(abcABC):  188.97261   188.97261   188.97261    90.00000    90.00000    90.00000  Step:         204  Bead:       0 x_centroid{angstrom}  cell{atomic_unit}
       O  3.03683e+00  1.29580e+00  2.10204e+00
       H  3.39946e+00  1.33159e+00  1.28997e+00
2
# CELL(abcABC):  188.97261   188.97261   188.97261    90.00000    90.00000    90.00000  Step:         208  Bead:       0 x_centroid{angstrom}  cell{atomic_unit}
       O  3.03360e+00  1.29672e+00  2.10140e+00
       H  3.39477e+00  1.33874e+00  1.29311e+00
2
# CELL(abcABC):  188.97261   188.97261   188.97261    90.00000    90.00000    90.00000  Step:         212  Bead:       0 x_centroid{angstrom}  cell{atomic_unit}
       O  3.03027e+00  1.29771e+00  2.10145e+00
       H  3.39182e+00  1.34480e+00  1.28534e+00
2
# CELL(abcABC):  188.97261   188.97261   188.97261    90.00000    90.00000    90.00000  Step:         216  Bead:       0 x_centroid{angstrom}  cell{atomic_unit}
       O  3.02684e+00  1.29874e+00  2.10191e+00
       H  3.39035e+00  1.35017e+00  1.27102e+00
2
# CELL(abcABC):  188.97261   188.97261   188.97261    90.00000    90.00000    90.00000  Step:         220  Bead:       0 x_centroid{angstrom}  cell{atomic_unit}
       O  3.02340e+00  1.29983e+00  2.10227e+00
       H  3.38897e+00  1.35468e+00  1.25815e+00
2
# CELL(abcABC):  188.97261   188.97261   188.97261    90.00000    90.00000    90.00000  Step:         224  Bead:       0 x_centroid{angstrom}  cell{atomic_unit}
       O  3.01995e+00  1.30094e+00  2.10223e+00
       H  3.38785e+00  1.35892e+00  1.25177e+00
2
# CELL(abcABC):  188.97261   188.97261   188.97261    90.00000    90.00000    90.00000  Step:         228  Bead:       0 x_centroid{angstrom}  cell{atomic_unit}
       O  3.01646e+00  1.30196e+00  2.10166e+00
       H  3.38735e+00  1.36447e+00  1.25370e+00
2
# CELL(abcABC):  188.97261   188.97261   188.97261    90.00000    90.00000    90.00000  Step:         232  Bead:       0 x_centroid{angstrom}  cell{atomic_unit}
       O  3.01298e+00  1.30287e+00  2.10058e+00
       H  3.38663e+00  1.37186e+00  1.26389e+00
2
# CELL(abcABC):  188.97261   188.97261   188.97261    90.00000    90.00000    90.00000  Step:         236  Bead:       0 x_centroid{angstrom}  cell{atomic_unit}
       O  3.00955e+00  1.30373e+00  2.09922e+00
       H  3.38523e+00  1.38002e+00  1.27845e+00
2
# CELL(abcABC):  188.97261   188.97261   188.97261    90.00000    90.00000    90.00000  Step:         240  Bead:       0 x_centroid{angstrom}  cell{atomic_unit}
       O  3.00610e+00  1.30465e+00  2.09806e+00
       H  3.38399e+00  1.38722e+00  1.28978e+00
2
# CELL(abcABC):  188.97261   188.97261   188.97261    90.00000    90.00000    90.00000  Step:         244  Bead:       0 x_centroid{angstrom}  cell{atomic_unit}
       O  3.00261e+00  1.30569e+00  2.09750e+00
       H  3.38345e+00  1.39247e+00  1.29162e+00
2
# CELL(abcABC):  188.97261   188.97261   188.97261    90.00000    90.00000    90.00000  Step:         248  Bead:       0 x_centroid{angstrom}  cell{atomic_unit}
       O  2.99904e+00  1.30686e+00  2.09765e+00
       H  3.38431e+00  1.39578e+00  1.28219e+00
2
# CELL(abcABC):  188.97261   188.97261   188.97261    90.00000    90.00000    90.00000  Step:         252  Bead:       0 x_centroid{angstrom}  cell{atomic_unit}
       O  2.99536e+00  1.30809e+00  2.09828e+00
       H  3.38681e+00  1.39790e+00  1.26510e+00
2
# CELL(abcABC):  188.97261   188.97261   188.97261    90.00000    90.00000    90.00000  Step:         256  Bead:       0 x_centroid{angstrom}  cell{atomic_unit}
       O  2.99165e+00  1.30934e+00  2.09896e+00
       H  3.38978e+00  1.39989e+00  1.24721e+00
2
# CELL(abcABC):  188.97261   188.97261   188.97261    90.00000    90.00000    90.00000  Step:         260  Bead:       0 x_centroid{angstrom}  cell{atomic_unit}
       O  2.98800e+00  1.31053e+00  2.09930e+00
       H  3.39184e+00  1.40282e+00  1.23478e+00
2
# CELL(abcABC):  188.97261   188.97261   188.97261    90.00000    90.00000    90.00000  Step:         264  Bead:       0 x_centroid{angstrom}  cell{atomic_unit}
       O  2.98449e+00  1.31165e+00  2.09907e+00
       H  3.39165e+00  1.40687e+00  1.23138e+00
2
# CELL(abcABC):  188.97261   188.97261   188.97261    90.00000    90.00000    90.00000  Step:         268  Bead:       0 x_centroid{angstrom}  cell{atomic_unit}
       O  2.98118e+00  1.31277e+00  2.09826e+00
       H  3.38824e+00  1.41083e+00  1.23720e+00
2
# CELL(abcABC):  188.97261   188.97261   188.97261    90.00000    90.00000    90.00000  Step:         272  Bead:       0 x_centroid{angstrom}  cell{atomic_unit}
       O  2.97802e+00  1.31393e+00  2.09711e+00
       H  3.38245e+00  1.41420e+00  1.24848e+00
2
# CELL(abcABC):  188.97261   188.97261   188.97261    90.00000    90.00000    90.00000  Step:         276  Bead:       0 x_centroid{angstrom}  cell{atomic_unit}
       O  2.97486e+00  1.31509e+00  2.09597e+00
       H  3.37662e+00  1.41762e+00  1.25944e+00
2
# CELL(abcABC):  188.97261   188.97261   188.97261    90.00000    90.00000    90.00000  Step:         280  Bead:       0 x_centroid{angstrom}  cell{atomic_unit}
       O  2.97155e+00  1.31622e+00  2.09524e+00
       H  3.37333e+00  1.42145e+00  1.26399e+00
2
# CELL(abcABC):  188.97261   188.97261   188.97261    90.00000    90.00000    90.00000  Step:         284  Bead:       0 x_centroid{angstrom}  cell{atomic_unit}
       O  2.96801e+00  1.31732e+00  2.09509e+00
       H  3.37359e+00  1.42575e+00  1.25939e+00
2
# CELL(abcABC):  188.97261   188.97261   188.97261    90.00000    90.00000    90.00000  Step:         288  Bead:       0 x_centroid{angstrom}  cell{atomic_unit}
       O  2.96427e+00  1.31831e+00  2.09537e+00
       H  3.37701e+00  1.43185e+00  1.24790e+00
2
# CELL(abcABC):  188.97261   188.97261   188.97261    90.00000    90.00000    90.00000  Step:         292  Bead:       0 x_centroid{angstrom}  cell{atomic_unit}
       O  2.96050e+00  1.31918e+00  2.09573e+00
       H  3.38093e+00  1.43982e+00  1.23515e+00
2
# CELL(abcABC):  188.97261   188.97261   188.97261    90.00000    90.00000    90.00000  Step:         296  Bead:       0 x_centroid{angstrom}  cell{atomic_unit}
       O  2.95692e+00  1.32006e+00  2.09576e+00
       H  3.38194e+00  1.44774e+00  1.22761e+00
2
# CELL(abcABC):  188.97261   188.97261   188.97261    90.00000    90.00000    90.00000  Step:         300  Bead:       0 x_centroid{angstrom}  cell{atomic_unit}
       O  2.95362e+00  1.32099e+00  2.09522e+00
       H  3.37832e+00  1.45483e+00  1.22903e+00
2
# CELL(abcABC):  188.97261   188.97261   188.97261    90.00000    90.00000    90.00000  Step:         304  Bead:       0 x_centroid{angstrom}  cell{atomic_unit}
       O  2.95058e+00  1.32198e+00  2.09416e+00
       H  3.37069e+00  1.46092e+00  1.23882e+00
2
# CELL(abcABC):  188.97261   188.97261   188.97261    90.00000    90.00000    90.00000  Step:         308  Bead:       0 x_centroid{angstrom}  cell{atomic_unit}
       O  2.94768e+00  1.32308e+00  2.09278e+00
       H  3.36083e+00  1.46519e+00  1.25365e+00
2
# CELL(abcABC):  188.97261   188.97261   188.97261    90.00000    90.00000    90.00000  Step:         312  Bead:       0 x_centroid{angstrom}  cell{atomic_unit}
       O  2.94480e+00  1.32429e+00  2.09133e+00
       H  3.35070e+00  1.46771e+00  1.26968e+00
2
# CELL(abcABC):  188.97261   188.97261   188.97261    90.00000    90.00000    90.00000  Step:         316  Bead:       0 x_centroid{angstrom}  cell{atomic_unit}
       O  2.94173e+00  1.32549e+00  2.09019e+00
       H  3.34343e+00  1.47051e+00  1.28070e+00
2
# CELL(abcABC):  188.97261   188.97261   188.97261    90.00000    90.00000    90.00000  Step:         320  Bead:       0 x_centroid{angstrom}  cell{atomic_unit}
       O  2.93833e+00  1.32656e+00  2.08965e+00
       H  3.34157e+00  1.47533e+00  1.28230e+00
2
# CELL(abcABC):  188.97261   188.97261   188.97261    90.00000    90.00000    90.00000  Step:         324  Bead:       0 x_centroid{angstrom}  cell{atomic_unit}
       O  2.93466e+00  1.32751e+00  2.08951e+00
       H  3.34382e+00  1.48197e+00  1.27740e+00
2
# CELL(abcABC):  188.97261   188.97261   188.97261    90.00000    90.00000    90.00000  Step:         328  Bead:       0 x_centroid{angstrom}  cell{atomic_unit}
       O  2.93093e+00  1.32842e+00  2.08949e+00
       H  3.34710e+00  1.48938e+00  1.27072e+00
2
# CELL(abcABC):  188.97261   188.97261   188.97261    90.00000    90.00000    90.00000  Step:         332  Bead:       0 x_centroid{angstrom}  cell{atomic_unit}
       O  2.92732e+00  1.32936e+00  2.08929e+00
       H  3.34847e+00  1.49625e+00  1.26686e+00
2
# CELL(abcABC):  188.97261   188.97261   188.97261    90.00000    90.00000    90.00000  Step:         336  Bead:       0 x_centroid{angstrom}  cell{atomic_unit}
       O  2.92400e+00  1.33042e+00  2.08867e+00
       H  3.34529e+00  1.50130e+00  1.26960e+00
2
# CELL(abcABC):  188.97261   188.97261   188.97261    90.00000    90.00000    90.00000  Step:         340  Bead:       0 x_centroid{angstrom}  cell{atomic_unit}
       O  2.92100e+00  1.33163e+00  2.08765e+00
       H  3.33696e+00  1.50381e+00  1.27871e+00
2
# CELL(abcABC):  188.97261   188.97261   188.97261    90.00000    90.00000    90.00000  Step:         344  Bead:       0 x_centroid{angstrom}  cell{atomic_unit}
       O  2.91823e+00  1.33302e+00  2.08639e+00
       H  3.32507e+00  1.50349e+00  1.29164e+00
2
# CELL(abcABC):  188.97261   188.97261   188.97261    90.00000    90.00000    90.00000  Step:         348  Bead:       0 x_centroid{angstrom}  cell{atomic_unit}
       O  2.91544e+00  1.33449e+00  2.08513e+00
       H  3.31348e+00  1.50200e+00  1.30466e+00
2
# CELL(abcABC):  188.97261   188.97261   188.97261    90.00000    90.00000    90.00000  Step:         352  Bead:       0 x_centroid{angstrom}  cell{atomic_unit}
       O  2.91228e+00  1.33580e+00  2.08419e+00
       H  3.30764e+00  1.50305e+00  1.31249e+00
2
# CELL(abcABC):  188.97261   188.97261   188.97261    90.00000    90.00000    90.00000  Step:         356  Bead:       0 x_centroid{angstrom}  cell{atomic_unit}
       O  2.90865e+00  1.33681e+00  2.08376e+00
       H  3.30935e+00  1.50878e+00  1.31228e+00
2
# CELL(abcABC):  188.97261   188.97261   188.97261    90.00000    90.00000    90.00000  Step:         360  Bead:       0 x_centroid{angstrom}  cell{atomic_unit}
       O  2.90475e+00  1.33761e+00  2.08368e+00
       H  3.31540e+00  1.51787e+00  1.30659e+00
2
# CELL(abcABC):  188.97261   188.97261   188.97261    90.00000    90.00000    90.00000  Step:         364  Bead:       0 x_centroid{angstrom}  cell{atomic_unit}
       O  2.90077e+00  1.33832e+00  2.08370e+00
       H  3.32272e+00  1.52835e+00  1.29907e+00
2
# CELL(abcABC):  188.97261   188.97261   188.97261    90.00000    90.00000    90.00000  Step:         368  Bead:       0 x_centroid{angstrom}  cell{atomic_unit}
       O  2.89691e+00  1.33909e+00  2.08363e+00
       H  3.32811e+00  1.53798e+00  1.29327e+00
2
# CELL(abcABC):  188.97261   188.97261   188.97261    90.00000    90.00000    90.00000  Step:         372  Bead:       0 x_centroid{angstrom}  cell{atomic_unit}
       O  2.89336e+00  1.34003e+00  2.08326e+00
       H  3.32852e+00  1.54480e+00  1.29206e+00
2
# CELL(abcABC):  188.97261   188.97261   188.97261    90.00000    90.00000    90.00000  Step:         376  Bead:       0 x_centroid{angstrom}  cell{atomic_unit}
       O  2.89018e+00  1.34120e+00  2.08253e+00
       H  3.32306e+00  1.54801e+00  1.29651e+00
2
# CELL(abcABC):  188.97261   188.97261   188.97261    90.00000    90.00000    90.00000  Step:         380  Bead:       0 x_centroid{angstrom}  cell{atomic_unit}
       O  2.88724e+00  1.34256e+00  2.08161e+00
       H  3.31385e+00  1.54827e+00  1.30414e+00
2
# CELL(abcABC):  188.97261   188.97261   188.97261    90.00000    90.00000    90.00000  Step:         384  Bead:       0 x_centroid{angstrom}  cell{atomic_unit}
       O  2.88432e+00  1.34399e+00  2.08071e+00
       H  3.30420e+00  1.54730e+00  1.31142e+00
2
# CELL(abcABC):  188.97261   188.97261   188.97261    90.00000    90.00000    90.00000  Step:         388  Bead:       0 x_centroid{angstrom}  cell{atomic_unit}
       O  2.88123e+00  1.34532e+00  2.08005e+00
       H  3.29738e+00  1.54801e+00  1.31475e+00
2
# CELL(abcABC):  188.97261   188.97261   188.97261    90.00000    90.00000    90.00000  Step:         392  Bead:       0 x_centroid{angstrom}  cell{atomic_unit}
       O  2.87780e+00  1.34635e+00  2.07985e+00
       H  3.29585e+00  1.55343e+00  1.31097e+00
2
# CELL(abcABC):  188.97261   188.97261   188.97261    90.00000    90.00000    90.00000  Step:         396  Bead:       0 x_centroid{angstrom}  cell{atomic_unit}
       O  2.87406e+00  1.34706e+00  2.08006e+00
       H  3.29930e+00  1.56402e+00  1.30055e+00
2
# CELL(abcABC):  188.97261   188.97261   188.97261    90.00000    90.00000    90.00000  Step:         400  Bead:       0 x_centroid{angstrom}  cell{atomic_unit}
       O  2.87018e+00  1.34759e+00  2.08048e+00
       H  3.30495e+00  1.57733e+00  1.28685e+00
2
# CELL(abcABC):  188.97261   188.97261   188.97261    90.00000    90.00000    90.00000  Step:         404  Bead:       0 x_centroid{angstrom}  cell{atomic_unit}
       O  2.86636e+00  1.34819e+00  2.08085e+00
       H  3.30968e+00  1.58962e+00  1.27383e+00
2
# CELL(abcABC):  188.97261   188.97261   188.97261    90.00000    90.00000    90.00000  Step:         408  Bead:       0 x_centroid{angstrom}  cell{atomic_unit}
       O  2.86278e+00  1.34900e+00  2.08090e+00
       H  3.31064e+00  1.59863e+00  1.26600e+00
2
# CELL(abcABC):  188.97261   188.97261   188.97261    90.00000    90.00000    90.00000  Step:         412  Bead:       0 x_centroid{angstrom}  cell{atomic_unit}
       O  2.85947e+00  1.35003e+00  2.08054e+00
       H  3.30725e+00  1.60403e+00  1.26472e+00
2
# CELL(abcABC):  188.97261   188.97261   188.97261    90.00000    90.00000    90.00000  Step:         416  Bead:       0 x_centroid{angstrom}  cell{atomic_unit}
       O  2.85636e+00  1.35125e+00  2.07990e+00
       H  3.30077e+00  1.60655e+00  1.26788e+00
2
# CELL(abcABC):  188.97261   188.97261   188.97261    90.00000    90.00000    90.00000  Step:         420  Bead:       0 x_centroid{angstrom}  cell{atomic_unit}
       O  2.85338e+00  1.35254e+00  2.07906e+00
       H  3.29218e+00  1.60776e+00  1.27403e+00
2
# CELL(abcABC):  188.97261   188.97261   188.97261    90.00000    90.00000    90.00000  Step:         424  Bead:       0 x_centroid{angstrom}  cell{atomic_unit}
       O  2.85042e+00  1.35381e+00  2.07816e+00
       H  3.28327e+00  1.60951e+00  1.28130e+00
2
# CELL(abcABC):  188.97261   188.97261   188.97261    90.00000    90.00000    90.00000  Step:         428  Bead:       0 x_centroid{angstrom}  cell{atomic_unit}
       O  2.84725e+00  1.35495e+00  2.07747e+00
       H  3.27765e+00  1.61321e+00  1.28518e+00
2
# CELL(abcABC):  188.97261   188.97261   188.97261    90.00000    90.00000    90.00000  Step:         432  Bead:       0 x_centroid{angstrom}  cell{atomic_unit}
       O  2.84375e+00  1.35594e+00  2.07719e+00
       H  3.27732e+00  1.61925e+00  1.28257e+00
2
# CELL(abcABC):  188.97261   188.97261   188.97261    90.00000    90.00000    90.00000  Step:         436  Bead:       0 x_centroid{angstrom}  cell{atomic_unit}
       O  2.84004e+00  1.35685e+00  2.07717e+00
       H  3.28028e+00  1.62652e+00  1.27590e+00
2
# CELL(abcABC):  188.97261   188.97261   188.97261    90.00000    90.00000    90.00000  Step:         440  Bead:       0 x_centroid{angstrom}  cell{atomic_unit}
       O  2.83633e+00  1.35782e+00  2.07709e+00
       H  3.28315e+00  1.63290e+00  1.27014e+00
2
# CELL(abcABC):  188.97261   188.97261   188.97261    90.00000    90.00000    90.00000  Step:         444  Bead:       0 x_centroid{angstrom}  cell{atomic_unit}
       O  2.83277e+00  1.35891e+00  2.07678e+00
       H  3.28379e+00  1.63746e+00  1.26794e+00
2
# CELL(abcABC):  188.97261   188.97261   188.97261    90.00000    90.00000    90.00000  Step:         448  Bead:       0 x_centroid{angstrom}  cell{atomic_unit}
       O  2.82940e+00  1.36008e+00  2.07622e+00
       H  3.28140e+00  1.64062e+00  1.26982e+00
2
# CELL(abcABC):  188.97261   188.97261   188.97261    90.00000    90.00000    90.00000  Step:         452  Bead:       0 x_centroid{angstrom}  cell{atomic_unit}
       O  2.82624e+00  1.36133e+00  2.07532e+00
       H  3.27555e+00  1.64258e+00  1.27709e+00
2
# CELL(abcABC):  188.97261   188.97261   188.97261    90.00000    90.00000    90.00000  Step:         456  Bead:       0 x_centroid{angstrom}  cell{atomic_unit}
       O  2.82326e+00  1.36263e+00  2.07414e+00
       H  3.26696e+00  1.64380e+00  1.28868e+00
2
# CELL(abcABC):  188.97261   188.97261   188.97261    90.00000    90.00000    90.00000  Step:         460  Bead:       0 x_centroid{angstrom}  cell{atomic_unit}
       O  2.82035e+00  1.36392e+00  2.07294e+00