ITEM: TIMESTEP
0
ITEM: NUMBER OF ATOMS
1536
ITEM: BOX BOUNDS pp pp pp
0.0000000000000000e+00 2.4797699999999999e+01
0.0000000000000000e+00 2.4797699999999999e+01
0.0000000000000000e+00 1.0000000000000000e+02
ITEM: ATOMS id mol type q x y z v_dipx_perm v_dipy_perm v_dipz_perm v_dipnorm_perm v_dipx_ind v_dipy_ind v_dipz_ind v_dipnorm_ind
1 1 1 0 5.80421 20.5953 96.4128 0.670359 1.76962 -0.494502 1.95588 0.267313 0.946893 -0.260184 1.01772
2 1 2 0 6.51099 20.8562 95.811 0 0 0 0 0 0 0 0
3 1 2 0 5.52971 21.4764 96.6958 0 0 0 0 0 0 0 0
4 1 1 0 21.4111 7.06306 1.43665 -0.336835 -1.01199 -1.60405 1.92629 -0.30829 -0.5713 -1.02914 1.21678
5 1 2 0 21.9656 6.43573 1.01286 0 0 0 0 0 0 0 0
6 1 2 0 20.6232 7.04934 0.82935 0 0 0 0 0 0 0 0
7 1 1 0 7.38702 17.9684 9.87405 -0.670532 -1.61262 0.517529 1.82154 -0.21057 -0.618203 -0.0155594 0.653266
8 1 2 0 6.70115 17.7985 10.5538 0 0 0 0 0 0 0 0
9 1 2 0 7.64778 17.1386 9.52472 0 0 0 0 0 0 0 0
10 1 1 0 14.0681 14.9528 7.51862 1.1767 0.283599 -1.47193 1.90569 0.693822 -0.0254502 -0.840703 1.09033
11 1 2 0 14.3108 15.7996 7.10336 0 0 0 0 0 0 0 0
12 1 2 0 14.5934 14.2778 6.97508 0 0 0 0 0 0 0 0
13 1 1 0 2.10026 2.73276 0.690768 -0.819399 -1.61383 0.357691 1.84494 -0.357643 -0.61423 0.288938 0.76725
14 1 2 0 1.12495 2.55651 0.833923 0 0 0 0 0 0 0 0
15 1 2 0 2.54327 1.88938 0.77532 0 0 0 0 0 0 0 0
16 1 1 0 14.8995 1.01333 14.2042 1.49147 -1.10428 0.494282 1.92048 0.209782 -0.690526 -0.0256649 0.722145
17 1 2 0 15.4649 1.11754 14.9352 0 0 0 0 0 0 0 0
18 1 2 0 15.2898 0.180573 13.7681 0 0 0 0 0 0 0 0
19 1 1 0 12.6891 20.3476 2.74171 -0.852686 -1.42509 -0.488807 1.73115 -0.545406 -0.992184 -0.3665 1.19005
20 1 2 0 12.5064 20.0648 1.7633 0 0 0 0 0 0 0 0
21 1 2 0 12.3382 19.739 3.39717 0 0 0 0 0 0 0 0
22 1 1 0 16.8343 23.663 10.7388 -0.490995 1.65664 -0.482783 1.79405 -0.313637 0.774013 -0.24745 0.871031
23 1 2 0 17.41 24.4235 10.8084 0 0 0 0 0 0 0 0
24 1 2 0 15.9348 23.9434 10.3603 0 0 0 0 0 0 0 0
25 1 1 0 1.35848 9.98607 8.34733 0.748121 0.521009 1.77225 1.99299 0.209373 -0.23245 0.763448 0.82506
26 1 2 0 2.26425 9.79577 8.8014 0 0 0 0 0 0 0 0
27 1 2 0 0.969925 10.515 9.07401 0 0 0 0 0 0 0 0
28 1 1 0 20.4572 3.61939 8.50139 -1.55123 1.09109 -0.198257 1.90686 -0.842083 0.37092 0.12892 0.929142
29 1 2 0 19.6051 3.54931 8.97733 0 0 0 0 0 0 0 0
30 1 2 0 20.3045 4.4042 7.89004 0 0 0 0 0 0 0 0
31 1 1 0 5.14318 3.85739 0.903206 1.21978 -0.0939279 1.57439 1.99384 0.514954 -0.137992 1.02501 1.15537
32 1 2 0 6.13785 3.77359 0.96918 0 0 0 0 0 0 0 0
33 1 2 0 4.96158 3.87858 1.88659 0 0 0 0 0 0 0 0
34 1 1 0 15.2882 19.3849 8.25209 0.935511 -0.214889 1.46314 1.74989 0.313076 -0.198796 0.824088 0.903691
35 1 2 0 15.0835 18.7531 8.97142 0 0 0 0 0 0 0 0
36 1 2 0 16.0578 19.8773 8.43098 0 0 0 0 0 0 0 0
37 1 1 0 8.5235 13.9758 96.0096 -0.577547 1.64835 -0.830855 1.93415 -0.710255 0.786453 -0.560529 1.19882
38 1 2 0 8.07733 14.1595 95.1041 0 0 0 0 0 0 0 0
39 1 2 0 8.5848 14.8476 96.351 0 0 0 0 0 0 0 0
40 1 1 0 16.5768 24.6915 7.39936 -0.831237 -1.60684 -0.193807 1.81947 -0.356851 -0.871691 -0.102193 0.947434
41 1 2 0 16.9407 23.847 7.64975 0 0 0 0 0 0 0 0
42 1 2 0 15.6872 24.5333 7.02491 0 0 0 0 0 0 0 0
43 1 1 0 13.2168 5.57677 5.64525 -1.75129 -0.7655 -0.135249 1.91606 -0.684127 -0.431284 -0.0186185 0.808939
44 1 2 0 12.636 5.18665 6.35481 0 0 0 0 0 0 0 0
45 1 2 0 12.6641 5.46975 4.85745 0 0 0 0 0 0 0 0
46 1 1 0 4.55165 12.0897 95.0271 -1.65881 0.58701 0.460092 1.81877 -0.78592 0.477508 0.0944958 0.924453
47 1 2 0 4.17787 12.9474 94.8236 0 0 0 0 0 0 0 0
48 1 2 0 3.89327 11.5974 95.5169 0 0 0 0 0 0 0 0
49 1 1 0 23.3299 9.65707 94.1729 -1.37419 0.676045 -0.797844 1.72685 -0.673867 0.324832 -0.478977 0.888274
50 1 2 0 23.1306 9.55077 93.2132 0 0 0 0 0 0 0 0
51 1 2 0 22.6901 10.1739 94.6357 0 0 0 0 0 0 0 0
52 1 1 0 24.5312 13.097 8.76844 0.0350923 1.17541 -1.33741 1.78087 -0.275867 0.588482 -0.636391 0.90962
53 1 2 0 24.1191 13.9394 8.77047 0 0 0 0 0 0 0 0
54 1 2 0 0.165709 12.9692 7.95623 0 0 0 0 0 0 0 0
55 1 1 0 2.50479 9.97957 88.0698 0.540808 -1.78056 0.250639 1.87768 0.6417 -0.741038 0.10908 0.986313
56 1 2 0 2.11894 9.22667 87.6846 0 0 0 0 0 0 0 0
57 1 2 0 3.24982 9.61007 88.6276 0 0 0 0 0 0 0 0
58 1 1 0 14.0871 4.54087 96.5851 -0.370512 1.51166 1.19288 1.96095 0.0102565 0.974527 0.761203 1.23662
59 1 2 0 14.5904 4.88927 97.4006 0 0 0 0 0 0 0 0
60 1 2 0 13.3491 5.19107 96.5669 0 0 0 0 0 0 0 0
61 1 1 0 23.3144 9.95659 5.40764 0.362701 0.929104 1.58569 1.87329 0.0636752 0.709515 0.596928 0.929402
62 1 2 0 23.7116 9.57959 6.19991 0 0 0 0 0 0 0 0
63 1 2 0 23.1442 10.9578 5.63663 0 0 0 0 0 0 0 0
64 1 1 0 23.4647 5.57533 99.7942 1.14121 0.645943 -1.08674 1.70312 0.516399 0.243966 -0.69617 0.900467
65 1 2 0 23.8365 6.44152 99.8833 0 0 0 0 0 0 0 0
66 1 2 0 23.776 5.09838 99.0562 0 0 0 0 0 0 0 0
67 1 1 0 5.85287 12.6651 97.5463 -0.136585 -1.89967 -0.742164 2.04406 0.302406 -0.722094 -0.411708 0.884519
68 1 2 0 5.73898 11.7629 97.9448 0 0 0 0 0 0 0 0
69 1 2 0 5.87467 12.31 96.6825 0 0 0 0 0 0 0 0
70 1 1 0 23.9028 18.552 9.31867 1.60975 -0.69021 -0.700164 1.88624 0.318139 -0.0210987 -0.380455 0.496391
71 1 2 0 24.6599 18.2135 9.78964 0 0 0 0 0 0 0 0
72 1 2 0 24.1602 18.4555 8.40696 0 0 0 0 0 0 0 0
73 1 1 0 1.70663 16.8351 9.74761 -0.350216 -1.77132 -0.0932714 1.80802 -0.313349 -0.4979 -0.133204 0.603188
74 1 2 0 1.84263 16.2019 10.4456 0 0 0 0 0 0 0 0
75 1 2 0 1.35361 16.3718 8.99126 0 0 0 0 0 0 0 0
76 1 1 0 12.4878 12.4443 94.9132 -1.45176 -0.224104 1.0611 1.81211 -0.660852 0.0604204 0.732113 0.988112
77 1 2 0 11.7197 13.0453 94.988 0 0 0 0 0 0 0 0
78 1 2 0 12.3469 11.7102 95.498 0 0 0 0 0 0 0 0
79 1 1 0 14.5009 19.88 98.7009 0.604367 1.71742 -0.462468 1.87848 0.427654 0.943999 -0.194298 1.05441
80 1 2 0 15.1378 20.4689 99.1939 0 0 0 0 0 0 0 0
81 1 2 0 14.2573 20.3936 97.919 0 0 0 0 0 0 0 0
82 1 1 0 10.1314 14.6181 4.2623 0.875768 0.133062 -1.52106 1.7602 0.500142 -0.0703578 -0.834679 0.975592
83 1 2 0 9.91988 15.2745 3.58005 0 0 0 0 0 0 0 0
84 1 2 0 10.8931 14.0408 3.9958 0 0 0 0 0 0 0 0
85 1 1 0 2.85649 3.25478 11.309 -1.54753 -0.413572 0.989144 1.88263 -0.218025 -0.349938 0.221315 0.467944
86 1 2 0 2.4912 3.72776 12.042 0 0 0 0 0 0 0 0
87 1 2 0 2.24462 2.51577 11.1963 0 0 0 0 0 0 0 0
88 1 1 0 4.73573 8.84267 4.96014 -1.0329 0.629266 -1.49589 1.92368 -0.756513 0.247936 -0.722815 1.07529
89 1 2 0 4.23064 9.69447 4.83988 0 0 0 0 0 0 0 0
90 1 2 0 4.56992 8.40837 4.11863 0 0 0 0 0 0 0 0
91 1 1 0 3.68889 8.67157 0.0369679 -1.4623 -0.670972 -0.806796 1.79984 -0.803333 -0.291802 -0.246722 0.889587
92 1 2 0 3.53579 7.72627 99.8467 0 0 0 0 0 0 0 0
93 1 2 0 2.92086 9.19607 99.7193 0 0 0 0 0 0 0 0
94 1 1 0 12.0683 1.37264 98.4628 0.649362 1.62898 0.746497 1.90591 0.421878 0.484687 0.563779 0.854838
95 1 2 0 12.2719 2.17664 98.022 0 0 0 0 0 0 0 0
96 1 2 0 12.2767 1.59754 99.3878 0 0 0 0 0 0 0 0
97 1 1 0 22.4166 21.5611 88.7507 -1.39892 0.0708251 1.2952 1.90776 -0.258176 -0.202925 0.0536572 0.332735
98 1 2 0 22.4243 21.3007 89.7158 0 0 0 0 0 0 0 0
99 1 2 0 21.5164 21.8619 88.6297 0 0 0 0 0 0 0 0
100 1 1 0 5.65022 17.5016 95.8369 -0.97128 0.762323 -1.20766 1.72712 -0.425244 0.223474 -0.0978724 0.490257
101 1 2 0 4.73467 17.2622 95.6947 0 0 0 0 0 0 0 0
102 1 2 0 5.97255 18.2147 95.233 0 0 0 0 0 0 0 0
103 1 1 0 14.1519 11.177 10.8476 -1.01351 0.0762556 -1.65134 1.93906 -0.465864 -0.0989688 -1.02355 1.12893
104 1 2 0 13.8206 11.9597 10.351 0 0 0 0 0 0 0 0
105 1 2 0 13.8199 10.4395 10.2632 0 0 0 0 0 0 0 0
106 1 1 0 4.99278 17.4472 3.26748 -0.717787 0.610276 1.65959 1.90838 -0.356521 0.682471 0.933191 1.20984
107 1 2 0 5.41078 17.9671 3.95968 0 0 0 0 0 0 0 0
108 1 2 0 4.12148 17.3161 3.62975 0 0 0 0 0 0 0 0
109 1 1 0 1.35737 6.98304 9.99949 0.406173 -0.96832 -1.74431 2.03599 -0.0425175 -0.442581 -0.846028 0.955745
110 1 2 0 1.82548 6.17999 9.79114 0 0 0 0 0 0 0 0
111 1 2 0 1.15024 7.15794 9.05267 0 0 0 0 0 0 0 0
112 1 1 0 4.89112 13.3983 9.07425 -1.02259 -1.32228 -0.632209 1.78712 -0.708821 -0.489482 -0.305537 0.913987
113 1 2 0 5.22223 12.6669 8.52836 0 0 0 0 0 0 0 0
114 1 2 0 3.91099 13.2999 9.22499 0 0 0 0 0 0 0 0
115 1 1 0 16.8379 6.41719 92.6237 1.75006 -0.078023 -0.743374 1.903 0.734504 0.209773 -0.669606 1.01581
116 1 2 0 17.6181 7.02761 92.7483 0 0 0 0 0 0 0 0
117 1 2 0 17.1812 5.77318 92.0335 0 0 0 0 0 0 0 0
118 1 1 0 13.0583 12.7935 9.07358 -0.511537 1.80672 0.248095 1.89406 -0.516898 0.730675 -0.301236 0.944359
119 1 2 0 12.2369 13.1418 9.42972 0 0 0 0 0 0 0 0
120 1 2 0 13.5552 13.5918 8.87483 0 0 0 0 0 0 0 0
121 1 1 0 12.2542 11.0668 6.0724 1.32683 -1.19402 0.392985 1.82774 0.792025 -0.619575 -0.0133631 1.00566
122 1 2 0 12.963 11.1913 6.72582 0 0 0 0 0 0 0 0
123 1 2 0 12.3822 10.188 5.66611 0 0 0 0 0 0 0 0
124 1 1 0 9.26958 1.01208 9.66511 -0.741877 -0.424367 1.68502 1.88938 -0.34454 -0.160148 0.775817 0.863857
125 1 2 0 8.94108 0.128888 9.99146 0 0 0 0 0 0 0 0
126 1 2 0 9.11718 1.61715 10.4292 0 0 0 0 0 0 0 0
127 1 1 0 7.81396 3.01844 1.95704 0.464021 -0.893401 1.53284 1.83387 0.540728 -0.389668 0.939103 1.15158
128 1 2 0 7.37043 2.25534 2.33274 0 0 0 0 0 0 0 0
129 1 2 0 8.54748 3.22292 2.53962 0 0 0 0 0 0 0 0
130 1 1 0 22.0709 6.2527 93.3444 -0.164636 1.77482 0.645097 1.89558 0.0259455 0.91546 0.407748 1.0025
131 1 2 0 22.7176 6.7505 93.8856 0 0 0 0 0 0 0 0
132 1 2 0 21.3055 6.91279 93.2181 0 0 0 0 0 0 0 0
133 1 1 0 5.01549 14.6017 4.57225 1.54798 0.820969 0.212404 1.76503 0.769043 0.396441 0.0237401 0.865538
134 1 2 0 5.56397 14.9419 3.84079 0 0 0 0 0 0 0 0
135 1 2 0 5.43006 14.7723 5.43509 0 0 0 0 0 0 0 0
136 1 1 0 2.92088 19.1076 1.29495 -1.271 1.21967 0.258684 1.78043 -0.794557 0.336778 0.777724 1.16172
137 1 2 0 3.01248 19.9327 1.82697 0 0 0 0 0 0 0 0
138 1 2 0 2.04388 19.0457 0.928593 0 0 0 0 0 0 0 0
139 1 1 0 14.2633 24.3972 9.85276 -0.68561 1.21767 1.41327 1.98749 -0.421177 0.600075 0.470565 0.871155
140 1 2 0 13.8835 24.2263 10.7359 0 0 0 0 0 0 0 0
141 1 2 0 14.1949 0.56147 9.8941 0 0 0 0 0 0 0 0
142 1 1 0 14.0648 16.9829 85.7969 1.0619 1.30789 0.694192 1.82212 0.544697 0.265818 -0.0505817 0.608205
143 1 2 0 13.8216 17.919 85.8837 0 0 0 0 0 0 0 0
144 1 2 0 14.9849 16.8715 86.1508 0 0 0 0 0 0 0 0
145 1 1 0 12.8469 22.5639 93.7294 0.738987 -0.682118 -1.43989 1.75632 0.171806 -0.350308 -0.675161 0.779792
146 1 2 0 12.7516 22.9653 92.824 0 0 0 0 0 0 0 0
147 1 2 0 13.4121 21.7274 93.7238 0 0 0 0 0 0 0 0
148 1 1 0 11.554 16.4126 90.1277 0.403367 1.25504 -1.32543 1.86939 0.311505 0.77723 -0.740186 1.11759
149 1 2 0 11.2408 17.3596 90.0555 0 0 0 0 0 0 0 0
150 1 2 0 12.1203 16.2771 89.3545 0 0 0 0 0 0 0 0
151 1 1 0 4.81672 24.0429 5.09057 -0.0202042 0.738345 1.70563 1.85869 0.084344 0.365489 0.878838 0.955538
152 1 2 0 5.5713 24.1572 5.70044 0 0 0 0 0 0 0 0
153 1 2 0 4.05296 24.3961 5.56211 0 0 0 0 0 0 0 0
154 1 1 0 18.793 12.3367 3.37578 -1.00248 1.58046 -0.467982 1.9292 -0.806915 0.75057 -0.311582 1.14523
155 1 2 0 18.0923 12.4514 2.7034 0 0 0 0 0 0 0 0
156 1 2 0 18.8445 13.2492 3.74644 0 0 0 0 0 0 0 0
157 1 1 0 8.29498 0.290713 2.71142 0.484112 -0.546748 -1.62749 1.78382 0.00277698 -0.283581 -0.837015 0.883753
158 1 2 0 7.68328 24.7781 2.01298 0 0 0 0 0 0 0 0
159 1 2 0 9.20508 0.259439 2.39399 0 0 0 0 0 0 0 0
160 1 1 0 0.156312 8.34462 98.0997 1.13847 -1.43815 0.362334 1.86967 0.0744604 -0.744708 -0.0938903 0.754288
161 1 2 0 0.229719 7.85226 98.9063 0 0 0 0 0 0 0 0
162 1 2 0 0.79931 7.93396 97.5173 0 0 0 0 0 0 0 0
163 1 1 0 23.0119 12.7222 5.26066 -1.78027 0.391636 -0.0990275 1.82552 -0.887838 0.400916 -0.0796299 0.97741
164 1 2 0 22.4559 13.1576 5.95949 0 0 0 0 0 0 0 0
165 1 2 0 22.4426 12.5378 4.50724 0 0 0 0 0 0 0 0
166 1 1 0 18.6706 21.6422 99.0453 -1.56548 -0.133168 -0.847442 1.78511 -0.44886 0.502832 -0.5945 0.898747
167 1 2 0 17.846 21.7374 99.4674 0 0 0 0 0 0 0 0
168 1 2 0 18.5351 21.4625 98.0888 0 0 0 0 0 0 0 0
169 1 1 0 3.65714 16.9369 88.4126 -1.37429 0.387878 -1.13624 1.82487 -0.713877 0.146142 -0.786687 1.07231
170 1 2 0 3.40965 17.8538 88.0721 0 0 0 0 0 0 0 0
171 1 2 0 3.01896 16.2722 88.0205 0 0 0 0 0 0 0 0
172 1 1 0 15.1028 6.2737 13.6397 1.02541 -1.26679 1.01321 1.91906 0.538515 -0.510263 0.645629 0.983466
173 1 2 0 15.1827 5.32049 13.4941 0 0 0 0 0 0 0 0
174 1 2 0 15.6986 6.41278 14.4583 0 0 0 0 0 0 0 0
175 1 1 0 8.93947 18.1915 5.43866 -0.867752 -1.76727 0.327713 1.99591 -0.591708 -0.717338 -0.0773329 0.933099
176 1 2 0 8.49493 17.5401 4.82582 0 0 0 0 0 0 0 0
177 1 2 0 8.80778 17.6713 6.26292 0 0 0 0 0 0 0 0
178 1 1 0 17.3693 21.5838 92.3913 0.748206 1.22613 -0.805199 1.64668 0.371742 0.876035 -0.826375 1.26037
179 1 2 0 16.8659 22.1845 91.8142 0 0 0 0 0 0 0 0
180 1 2 0 18.3251 21.7253 92.4809 0 0 0 0 0 0 0 0
181 1 1 0 24.0594 24.0856 89.8386 0.29654 -1.7999 0.158432 1.83104 0.290883 -1.23074 0.144497 1.27287
182 1 2 0 23.5216 23.3728 89.4321 0 0 0 0 0 0 0 0
183 1 2 0 24.7871 23.6542 90.3467 0 0 0 0 0 0 0 0
184 1 1 0 11.0874 11.0067 92.8313 0.286078 1.85979 0.135763 1.88655 0.336468 0.829696 0.202564 0.917953
185 1 2 0 11.613 11.5039 93.5022 0 0 0 0 0 0 0 0
186 1 2 0 10.7491 11.6976 92.2535 0 0 0 0 0 0 0 0
187 1 1 0 21.5441 4.60521 11.3358 1.08055 0.402309 -1.35625 1.78013 0.424704 -0.0949675 -0.509997 0.67044
188 1 2 0 21.3905 4.36678 10.4326 0 0 0 0 0 0 0 0
189 1 2 0 22.3623 5.09156 11.4076 0 0 0 0 0 0 0 0
190 1 1 0 2.98728 21.0155 3.079 -0.00661144 1.84767 0.584329 1.93788 -0.0626326 0.639721 0.615848 0.890188
191 1 2 0 2.24772 21.6071 3.30636 0 0 0 0 0 0 0 0
192 1 2 0 3.71418 21.6087 3.22683 0 0 0 0 0 0 0 0
193 1 1 0 18.7492 23.855 95.5971 -1.52247 -0.989109 -0.147997 1.82158 -0.59166 -0.345685 0.0326425 0.686021
194 1 2 0 17.8519 24.1931 95.3819 0 0 0 0 0 0 0 0
195 1 2 0 18.6842 22.8963 95.7181 0 0 0 0 0 0 0 0
196 1 1 0 23.224 7.10523 86.8443 1.11394 -1.56448 -0.145801 1.92606 0.392894 -0.915302 0.462326 1.09813
197 1 2 0 23.5971 6.51197 87.5536 0 0 0 0 0 0 0 0
198 1 2 0 23.572 6.68464 86.0527 0 0 0 0 0 0 0 0
199 1 1 0 15.9647 21.7003 0.387414 -0.907703 0.852666 1.41017 1.88137 -0.467059 0.56671 0.808569 1.09229
200 1 2 0 15.8142 21.3666 1.30999 0 0 0 0 0 0 0 0
201 1 2 0 15.5309 22.5809 0.37559 0 0 0 0 0 0 0 0
202 1 1 0 11.1581 9.63043 3.36378 1.50368 -1.18698 -0.244692 1.93128 0.542874 -0.266239 0.300519 0.675209
203 1 2 0 11.4016 8.83006 3.85396 0 0 0 0 0 0 0 0
204 1 2 0 11.8854 9.66623 2.71409 0 0 0 0 0 0 0 0
205 1 1 0 3.1393 19.8071 96.4291 1.04263 -1.36872 -0.495515 1.79053 0.40191 -0.569552 0.0263504 0.697579
206 1 2 0 2.8299 18.9176 96.3077 0 0 0 0 0 0 0 0
207 1 2 0 4.10489 19.8501 96.2416 0 0 0 0 0 0 0 0
208 1 1 0 19.2109 7.50143 93.4327 -0.571905 1.16323 1.3436 1.86694 -0.129295 0.800858 0.752185 1.10629
209 1 2 0 18.8863 8.43094 93.3345 0 0 0 0 0 0 0 0
210 1 2 0 19.1689 7.3195 94.3864 0 0 0 0 0 0 0 0
211 1 1 0 22.6704 24.7631 95.9226 -1.17469 -1.5118 0.127257 1.91875 -0.292326 -0.865005 -0.00873182 0.913107
212 1 2 0 22.5328 24.168 96.668 0 0 0 0 0 0 0 0
213 1 2 0 22.0463 24.3835 95.2501 0 0 0 0 0 0 0 0
214 1 1 0 2.75773 10.0736 96.294 0.850829 -0.875116 1.44006 1.88773 0.254149 -0.504592 0.521945 0.769176
215 1 2 0 2.66347 10.2332 97.244 0 0 0 0 0 0 0 0
216 1 2 0 3.38758 9.36357 96.2591 0 0 0 0 0 0 0 0
217 1 1 0 18.3976 22.6576 89.7114 -0.479578 1.89924 -0.0212186 1.95897 -0.375712 0.621778 -0.0939106 0.732521
218 1 2 0 18.8408 23.3992 89.3226 0 0 0 0 0 0 0 0
219 1 2 0 17.6362 23.1382 90.0923 0 0 0 0 0 0 0 0
220 1 1 0 11.4169 16.6441 1.83527 1.51633 1.12153 0.3283 1.91439 0.476613 0.619889 0.430848 0.892778
221 1 2 0 11.6603 17.4713 1.41693 0 0 0 0 0 0 0 0
222 1 2 0 12.1427 16.531 2.46545 0 0 0 0 0 0 0 0
223 1 1 0 19.6648 11.3599 11.2676 -0.130312 -1.79279 0.63965 1.90793 0.0896294 -0.739353 0.0870585 0.749837
224 1 2 0 19.9912 10.988 12.1093 0 0 0 0 0 0 0 0
225 1 2 0 19.2522 10.5726 10.8359 0 0 0 0 0 0 0 0
226 1 1 0 18.0617 2.04633 5.86705 -0.986524 -1.28347 -0.994927 1.90011 -0.586828 -0.149863 -0.289401 0.671252
227 1 2 0 17.7621 2.08103 4.93733 0 0 0 0 0 0 0 0
228 1 2 0 17.7321 1.19696 6.15642 0 0 0 0 0 0 0 0
229 1 1 0 18.2195 8.03687 13.1131 -0.797006 -1.37047 -0.901626 1.82382 -0.533951 -0.68273 -0.371905 0.943152
230 1 2 0 18.5237 7.10508 13.0576 0 0 0 0 0 0 0 0
231 1 2 0 17.4242 8.10497 12.6077 0 0 0 0 0 0 0 0
232 1 1 0 16.7512 13.7442 88.1412 0.16844 1.71085 0.728893 1.86727 -0.133367 1.08259 0.316089 1.13565
233 1 2 0 16.987 13.9656 89.0344 0 0 0 0 0 0 0 0
234 1 2 0 16.6198 14.6076 87.7012 0 0 0 0 0 0 0 0
235 1 1 0 5.43007 11.9306 11.3333 -1.66798 0.647108 -0.561502 1.87515 -0.79452 0.283061 -0.447661 0.954875
236 1 2 0 5.24877 12.5336 10.5587 0 0 0 0 0 0 0 0
237 1 2 0 4.52039 11.7473 11.7454 0 0 0 0 0 0 0 0
238 1 1 0 13.2928 9.07187 13.3788 -1.73401 -0.592197 -0.00594757 1.83235 -0.310562 -0.157218 -0.0897258 0.359467
239 1 2 0 12.7586 8.81867 14.1595 0 0 0 0 0 0 0 0
240 1 2 0 12.7314 8.95067 12.5969 0 0 0 0 0 0 0 0
241 1 1 0 2.06452 10.4892 3.53679 1.47108 1.08121 0.572095 1.91321 0.572491 0.386684 -0.0360884 0.69179
242 1 2 0 2.1018 11.18 4.20178 0 0 0 0 0 0 0 0
243 1 2 0 2.95218 10.4852 3.23836 0 0 0 0 0 0 0 0
244 1 1 0 6.02908 9.5651 98.3542 -0.179756 0.295581 1.9056 1.93675 0.0697946 0.205763 0.578424 0.617887
245 1 2 0 5.26398 9.37662 98.9462 0 0 0 0 0 0 0 0
246 1 2 0 6.68208 9.94971 99.0118 0 0 0 0 0 0 0 0
247 1 1 0 22.0526 10.7527 0.405648 1.12965 -1.44622 -0.649379 1.94663 0.293192 -0.42025 -0.0729769 0.517588
248 1 2 0 22.0096 10.2509 99.5994 0 0 0 0 0 0 0 0
249 1 2 0 22.8212 10.3288 0.799503 0 0 0 0 0 0 0 0
250 1 1 0 13.5373 4.6109 2.67646 0.440595 1.43016 -1.16285 1.89518 0.334696 0.829043 -0.363019 0.964944
251 1 2 0 12.9043 5.20913 2.1407 0 0 0 0 0 0 0 0
252 1 2 0 14.4571 4.95717 2.444 0 0 0 0 0 0 0 0
253 1 1 0 9.12108 1.73079 94.8325 1.60779 -0.0878718 0.869756 1.83008 0.468405 -0.230069 0.373684 0.641853
254 1 2 0 9.64138 0.903883 95.0302 0 0 0 0 0 0 0 0
255 1 2 0 9.62928 2.49918 95.191 0 0 0 0 0 0 0 0
256 1 1 0 10.4906 10.1015 99.787 -1.67135 -0.904751 -0.548035 1.97796 -0.656602 -0.42138 -0.352314 0.856045
257 1 2 0 10.3152 9.23857 99.441 0 0 0 0 0 0 0 0
258 1 2 0 9.60458 10.3831 99.7824 0 0 0 0 0 0 0 0
259 1 1 0 19.0684 9.99352 5.00737 0.958547 0.642688 -1.44555 1.84972 0.262553 0.14833 -0.838828 0.891385
260 1 2 0 18.9758 10.846 4.60939 0 0 0 0 0 0 0 0
261 1 2 0 19.7694 9.5364 4.49518 0 0 0 0 0 0 0 0
262 1 1 0 18.9628 2.99367 93.5817 -1.6035 0.230798 -0.272071 1.64271 -1.12568 0.0959528 -0.311253 1.17185
263 1 2 0 18.3271 2.42788 94.0206 0 0 0 0 0 0 0 0
264 1 2 0 18.6277 3.7041 92.974 0 0 0 0 0 0 0 0
265 1 1 0 5.51504 2.77619 95.0846 0.556209 1.47419 -0.93372 1.83151 0.389781 0.824041 -0.18121 0.929414
266 1 2 0 5.19916 3.06029 94.2306 0 0 0 0 0 0 0 0
267 1 2 0 6.17857 3.41164 95.3573 0 0 0 0 0 0 0 0
268 1 1 0 0.205841 21.9709 3.38716 -1.47583 1.03537 0.71514 1.93946 -0.545541 0.572652 0.272753 0.836624
269 1 2 0 0.0439471 22.2925 4.28311 0 0 0 0 0 0 0 0
270 1 2 0 24.2182 22.3143 2.95188 0 0 0 0 0 0 0 0
271 1 1 0 20.578 10.6933 7.35964 -0.0881451 -1.73176 -0.599696 1.83477 0.0995113 -0.774399 0.0163073 0.780936
272 1 2 0 21.067 9.98417 7.70911 0 0 0 0 0 0 0 0
273 1 2 0 20.0208 10.3216 6.62094 0 0 0 0 0 0 0 0
274 1 1 0 1.57634 10.4683 98.9522 -1.6198 -0.22966 0.698754 1.77897 -0.892674 0.0189203 0.36679 0.965277
275 1 2 0 1.18949 11.001 99.6448 0 0 0 0 0 0 0 0
276 1 2 0 0.971505 9.79791 98.69 0 0 0 0 0 0 0 0
277 1 1 0 18.2304 3.41237 9.77871 -1.69234 0.687232 -0.784199 1.98778 -1.08854 0.385237 -0.184898 1.1694
278 1 2 0 17.5817 3.00437 9.19393 0 0 0 0 0 0 0 0
279 1 2 0 17.7765 4.27207 9.85424 0 0 0 0 0 0 0 0
280 1 1 0 20.4436 14.6977 0.0265184 -1.88344 -0.0622308 -0.16467 1.89165 -1.14842 -0.100602 -0.301521 1.1916
281 1 2 0 19.7991 15.3757 0.287477 0 0 0 0 0 0 0 0
282 1 2 0 19.8775 13.9741 99.6572 0 0 0 0 0 0 0 0
283 1 1 0 1.00666 16.9304 3.36057 -0.792374 -1.53879 -0.787414 1.90151 -0.212733 -1.01206 -0.723305 1.26202
284 1 2 0 0.243644 16.4819 3.65359 0 0 0 0 0 0 0 0
285 1 2 0 1.28075 16.3912 2.54292 0 0 0 0 0 0 0 0
286 1 1 0 0.970065 15.1775 96.1372 -1.69048 -0.732123 -0.11346 1.84569 -0.678291 -0.673568 0.303843 1.00304
287 1 2 0 0.584683 14.4573 96.6903 0 0 0 0 0 0 0 0
288 1 2 0 0.290421 15.4293 95.5201 0 0 0 0 0 0 0 0
289 1 1 0 20.8236 24.613 11.3418 -1.38934 0.476991 -1.18431 1.8869 -0.716889 0.224098 -0.500871 0.902785
290 1 2 0 20.0679 0.351421 11.5212 0 0 0 0 0 0 0 0
291 1 2 0 20.7048 24.3737 10.4069 0 0 0 0 0 0 0 0
292 1 1 0 11.299 6.2891 90.6956 -1.6424 -0.406488 0.0383064 1.69239 -0.68693 -0.31189 -0.106462 0.761894
293 1 2 0 10.6135 6.90071 90.4341 0 0 0 0 0 0 0 0
294 1 2 0 10.9935 5.43271 90.98 0 0 0 0 0 0 0 0
295 1 1 0 0.561931 13.2429 92.8195 -0.978604 -1.57608 0.312922 1.88139 -0.629934 -0.907783 0.104943 1.10991
296 1 2 0 24.6178 12.8494 92.2729 0 0 0 0 0 0 0 0
297 1 2 0 0.668217 12.6225 93.5598 0 0 0 0 0 0 0 0
298 1 1 0 0.345405 7.0626 92.0245 -0.00434582 0.858011 -1.67593 1.8828 -0.256001 0.133735 -0.465621 0.547927
299 1 2 0 1.01625 7.0292 91.3208 0 0 0 0 0 0 0 0
300 1 2 0 24.4756 7.63663 91.6652 0 0 0 0 0 0 0 0
301 1 1 0 9.81638 4.52337 95.5021 -1.57831 0.310607 -0.977784 1.88244 -0.856859 0.0376213 -0.269032 0.898889
302 1 2 0 8.93934 4.64637 95.8445 0 0 0 0 0 0 0 0
303 1 2 0 9.69635 4.59727 94.5299 0 0 0 0 0 0 0 0
304 1 1 0 7.75138 13.8012 11.6447 -0.810856 -0.918221 -1.22851 1.73489 -0.658215 -0.162667 -0.341281 0.759065
305 1 2 0 7.01348 13.2545 11.8338 0 0 0 0 0 0 0 0
306 1 2 0 7.99988 13.7904 10.6992 0 0 0 0 0 0 0 0
307 1 1 0 18.5692 15.3194 9.17149 -1.7824 0.240808 -0.769637 1.95635 -0.958259 -0.195313 -0.00733025 0.977989
308 1 2 0 17.7408 15.7041 9.55838 0 0 0 0 0 0 0 0
309 1 2 0 18.2318 15.0949 8.28853 0 0 0 0 0 0 0 0
310 1 1 0 16.0812 1.03401 98.6906 0.819864 -0.140002 -1.67828 1.87307 0.581012 0.0432525 -0.775429 0.969915
311 1 2 0 15.7223 1.3511 97.8446 0 0 0 0 0 0 0 0
312 1 2 0 16.9816 0.619811 98.4568 0 0 0 0 0 0 0 0
313 1 1 0 12.5174 11.6189 1.07666 -0.361304 1.24582 -1.43319 1.93304 -0.123944 0.49092 -0.701259 0.864944
314 1 2 0 11.7532 11.6545 0.429954 0 0 0 0 0 0 0 0
315 1 2 0 13.0385 12.3923 0.785879 0 0 0 0 0 0 0 0
316 1 1 0 6.43891 5.69861 3.76586 -0.475442 0.764111 -1.70038 1.92385 -0.268619 0.372004 -1.0592 1.15432
317 1 2 0 5.5773 5.94879 3.41971 0 0 0 0 0 0 0 0
318 1 2 0 6.99456 5.93542 3.02919 0 0 0 0 0 0 0 0
319 1 1 0 13.4685 16.3887 3.85097 -0.505766 -1.02405 1.43029 1.83035 -0.0369027 -0.325763 0.61732 0.698976
320 1 2 0 13.6937 15.5057 3.98723 0 0 0 0 0 0 0 0
321 1 2 0 12.9251 16.6486 4.60232 0 0 0 0 0 0 0 0
322 1 1 0 7.13493 7.81706 88.4319 -0.223444 -1.11199 -1.56573 1.93338 -0.0503217 -0.33679 -0.33308 0.476342
323 1 2 0 6.74746 6.9371 88.3576 0 0 0 0 0 0 0 0
324 1 2 0 7.38153 7.98339 87.4874 0 0 0 0 0 0 0 0
325 1 1 0 14.4826 14.5467 91.4085 -1.32566 -1.31466 0.354537 1.90037 -0.606002 -0.428753 0.141161 0.755642
326 1 2 0 14.324 14.0709 92.2263 0 0 0 0 0 0 0 0
327 1 2 0 13.7885 14.1807 90.8095 0 0 0 0 0 0 0 0
328 1 1 0 24.2272 3.24453 1.57046 0.0367964 1.69344 0.924847 1.92988 -0.0242634 0.746689 0.472139 0.88377
329 1 2 0 23.9759 4.14074 1.25456 0 0 0 0 0 0 0 0
330 1 2 0 24.5013 3.44601 2.48226 0 0 0 0 0 0 0 0
331 1 1 0 11.3257 10.18 96.4384 -1.64988 -0.144492 -0.846492 1.85998 -0.966405 -0.046234 -0.250934 0.999522
332 1 2 0 11.0734 9.52227 95.7566 0 0 0 0 0 0 0 0
333 1 2 0 10.5153 10.7495 96.5791 0 0 0 0 0 0 0 0
334 1 1 0 15.8635 10.7474 88.4989 -0.691287 0.904051 -1.61 1.97162 -0.298496 0.212711 -0.33393 0.495838
335 1 2 0 15.9773 11.6738 88.1707 0 0 0 0 0 0 0 0
336 1 2 0 15.2984 10.4175 87.7726 0 0 0 0 0 0 0 0
337 1 1 0 3.78165 13.5918 1.05607 -0.243241 -1.55689 -0.961823 1.84612 -0.148393 -0.876179 -0.511918 1.02556
338 1 2 0 3.42676 13.4988 0.151258 0 0 0 0 0 0 0 0
339 1 2 0 3.98093 12.7094 1.35028 0 0 0 0 0 0 0 0
340 1 1 0 11.9582 13.1323 97.9456 1.87863 0.809589 -0.107119 2.04846 1.02904 0.23599 -0.447494 1.14667
341 1 2 0 12.8801 12.7823 98.0862 0 0 0 0 0 0 0 0
342 1 2 0 12.289 14.0042 97.7382 0 0 0 0 0 0 0 0
343 1 1 0 14.3991 19.9696 93.2039 1.55944 -0.965472 -0.552164 1.91543 0.528691 -0.519312 0.0111817 0.741164
344 1 2 0 15.1458 20.2571 92.6127 0 0 0 0 0 0 0 0
345 1 2 0 14.6648 19.0625 93.4334 0 0 0 0 0 0 0 0
346 1 1 0 11.995 23.7137 97.217 -0.00904397 0.823102 1.65235 1.84603 0.138548 0.353169 0.799631 0.885061
347 1 2 0 11.75 23.3226 98.0689 0 0 0 0 0 0 0 0
348 1 2 0 12.2329 24.6177 97.4044 0 0 0 0 0 0 0 0
349 1 1 0 2.64067 16.7308 98.696 0.593543 -0.17799 1.70274 1.81199 0.337656 -0.04261 1.14824 1.19762
350 1 2 0 3.4605 17.0869 99.0591 0 0 0 0 0 0 0 0
351 1 2 0 2.19333 16.2669 99.388 0 0 0 0 0 0 0 0
352 1 1 0 7.81288 2.4719 7.63732 1.31803 0.621883 1.08271 1.81554 0.542861 0.463418 0.705197 1.00337
353 1 2 0 8.24718 3.31746 7.56277 0 0 0 0 0 0 0 0
354 1 2 0 8.19748 2.01149 8.38539 0 0 0 0 0 0 0 0
355 1 1 0 8.4499 15.0443 98.6984 0.283812 -1.85188 -0.177185 1.88186 0.0206377 -0.805849 -0.151027 0.820138
356 1 2 0 7.81668 14.3731 98.4232 0 0 0 0 0 0 0 0
357 1 2 0 9.26777 14.537 98.862 0 0 0 0 0 0 0 0
358 1 1 0 4.60898 1.43268 99.7635 -0.07579 1.73946 -0.557833 1.82829 -0.0390355 0.977295 -0.332381 1.03301
359 1 2 0 4.56718 1.73002 98.8528 0 0 0 0 0 0 0 0
360 1 2 0 4.60328 2.22986 0.328595 0 0 0 0 0 0 0 0
361 1 1 0 14.4698 3.31048 0.153147 -0.38761 -1.34067 1.16861 1.82024 -0.512185 -0.850233 0.678148 1.20213
362 1 2 0 14.8133 2.38101 0.118075 0 0 0 0 0 0 0 0
363 1 2 0 13.8837 3.3874 0.925944 0 0 0 0 0 0 0 0
364 1 1 0 11.2395 3.99327 12.3179 0.669931 1.54512 0.577109 1.78024 0.408095 0.452612 0.153207 0.628388
365 1 2 0 11.5399 4.70633 11.7422 0 0 0 0 0 0 0 0
366 1 2 0 11.356 4.24166 13.2562 0 0 0 0 0 0 0 0
367 1 1 0 24.6012 5.75024 88.6388 0.931876 0.327079 1.47533 1.77538 0.696947 -0.0334046 0.684243 0.977261
368 1 2 0 0.698305 6.06345 88.658 0 0 0 0 0 0 0 0
369 1 2 0 24.277 5.63728 89.523 0 0 0 0 0 0 0 0
370 1 1 0 10.1009 3.15952 3.40275 -0.152753 0.564069 1.77605 1.86972 0.130416 0.465588 0.872772 0.997753
371 1 2 0 10.2775 4.0709 3.7558 0 0 0 0 0 0 0 0
372 1 2 0 9.82338 2.60944 4.20548 0 0 0 0 0 0 0 0
373 1 1 0 17.1999 12.2102 1.15597 -0.406743 0.811404 -1.52556 1.77515 -0.294154 0.603594 -0.955313 1.16768
374 1 2 0 16.3111 12.6493 0.94128 0 0 0 0 0 0 0 0
375 1 2 0 17.8225 12.2869 0.407851 0 0 0 0 0 0 0 0
376 1 1 0 13.0936 23.1392 12.3041 0.85354 -1.52759 -0.0397893 1.75033 0.136236 -0.251187 0.389638 0.483191
377 1 2 0 12.8051 22.4142 11.801 0 0 0 0 0 0 0 0
378 1 2 0 13.9086 22.9374 12.7891 0 0 0 0 0 0 0 0
379 1 1 0 4.31327 11.0036 2.17656 1.66891 -0.708233 -0.273127 1.83342 0.717046 -0.213062 -0.153891 0.763697
380 1 2 0 4.53216 10.2444 1.59958 0 0 0 0 0 0 0 0
381 1 2 0 5.15452 11.3142 2.58109 0 0 0 0 0 0 0 0
382 1 1 0 20.4714 21.7586 1.74671 -0.719409 -1.70769 -0.599021 1.94746 -0.556017 -0.618796 -0.103224 0.838283
383 1 2 0 19.7963 21.5499 1.08078 0 0 0 0 0 0 0 0
384 1 2 0 20.68 20.8745 2.02315 0 0 0 0 0 0 0 0
385 1 1 0 20.6754 24.1175 0.255467 0.243881 1.0123 1.47819 1.80811 0.064335 0.32522 0.677262 0.754049
386 1 2 0 20.854 0.244932 0.257046 0 0 0 0 0 0 0 0
387 1 2 0 20.647 23.8143 1.17388 0 0 0 0 0 0 0 0
388 1 1 0 7.23784 21.6174 94.0353 -0.494279 1.39885 -1.12607 1.86256 -0.238413 0.491495 -0.315626 0.630894
389 1 2 0 7.81329 22.2919 93.6384 0 0 0 0 0 0 0 0
390 1 2 0 6.35129 21.8293 93.7191 0 0 0 0 0 0 0 0
391 1 1 0 2.30159 14.4694 5.43158 1.50353 -1.04155 0.238436 1.84453 0.847195 -0.438499 0.117011 0.961099
392 1 2 0 3.23359 14.6881 5.16503 0 0 0 0 0 0 0 0
393 1 2 0 2.33119 13.5915 5.8473 0 0 0 0 0 0 0 0
394 1 1 0 20.6067 11.173 90.754 0.252137 -0.15694 -1.7921 1.81654 0.0654944 -0.194037 -0.623624 0.656389
395 1 2 0 19.9584 10.8218 90.0654 0 0 0 0 0 0 0 0
396 1 2 0 21.3949 11.4181 90.3147 0 0 0 0 0 0 0 0
397 1 1 0 7.7954 19.252 93.7488 0.854752 0.270799 -1.61331 1.84572 0.422997 0.164103 -0.492007 0.669274
398 1 2 0 8.32518 18.5936 93.2091 0 0 0 0 0 0 0 0
399 1 2 0 7.81236 20.0668 93.266 0 0 0 0 0 0 0 0
400 1 1 0 11.519 20.0938 94.9722 -0.984511 0.248502 -1.61424 1.90703 -0.289915 -0.0267099 -0.787335 0.83944
401 1 2 0 11.0334 19.4017 94.3979 0 0 0 0 0 0 0 0
402 1 2 0 11.3565 20.9374 94.4871 0 0 0 0 0 0 0 0
403 1 1 0 8.40288 9.29816 2.58156 1.00585 -0.213479 1.57643 1.88214 0.749662 -0.204547 0.837416 1.14241
404 1 2 0 8.0787 9.02319 3.45248 0 0 0 0 0 0 0 0
405 1 2 0 9.38116 9.43832 2.71968 0 0 0 0 0 0 0 0
406 1 1 0 3.98114 23.1889 90.6447 0.66277 0.133192 1.71122 1.83992 0.667826 -0.188816 0.604433 0.920316
407 1 2 0 4.30946 22.4509 91.2434 0 0 0 0 0 0 0 0
408 1 2 0 4.07468 23.9941 91.1297 0 0 0 0 0 0 0 0
409 1 1 0 13.7746 15.3253 95.0761 -1.59701 0.213061 1.01946 1.9066 -0.421304 -0.274459 0.659448 0.829275
410 1 2 0 12.9266 14.919 94.9258 0 0 0 0 0 0 0 0
411 1 2 0 13.6029 15.8787 95.892 0 0 0 0 0 0 0 0
412 1 1 0 5.49886 7.88596 7.41842 -1.67736 0.909383 0.0166018 1.90809 -0.825554 0.498096 -0.101922 0.96955
413 1 2 0 4.96787 8.14927 8.18938 0 0 0 0 0 0 0 0
414 1 2 0 4.9405 8.21361 6.64676 0 0 0 0 0 0 0 0
415 1 1 0 3.31846 22.0928 86.7285 0.50147 1.6816 -0.348361 1.78902 -0.307072 0.590647 -0.259166 0.71437
416 1 2 0 3.97924 22.3535 86.0577 0 0 0 0 0 0 0 0
417 1 2 0 2.97203 22.8859 87.1809 0 0 0 0 0 0 0 0
418 1 1 0 5.91838 15.3916 7.34691 -1.60854 -0.132674 1.07583 1.93969 -1.01611 0.182677 0.608342 1.1983
419 1 2 0 5.12498 16.0199 7.44987 0 0 0 0 0 0 0 0
420 1 2 0 5.65858 14.6999 7.93398 0 0 0 0 0 0 0 0
421 1 1 0 19.6047 19.3035 86.2969 0.110893 -1.87827 -0.233789 1.89601 0.21834 -0.413679 -0.235046 0.523497
422 1 2 0 19.8552 18.6492 86.9344 0 0 0 0 0 0 0 0
423 1 2 0 19.4219 18.765 85.5014 0 0 0 0 0 0 0 0
424 1 1 0 18.7781 13.9925 97.368 0.249765 0.184985 -1.73525 1.76287 0.0119623 0.419773 -0.830579 0.930706
425 1 2 0 19.621 14.0214 96.9541 0 0 0 0 0 0 0 0
426 1 2 0 18.0849 14.0763 96.7252 0 0 0 0 0 0 0 0
427 1 1 0 2.77321 23.3554 97.6881 -1.81764 0.394897 0.34789 1.8923 -0.989548 0.0762359 0.631537 1.17637
428 1 2 0 2.21541 24.093 97.3421 0 0 0 0 0 0 0 0
429 1 2 0 2.17267 22.8792 98.2486 0 0 0 0 0 0 0 0
430 1 1 0 8.28442 13.5707 1.33654 0.211984 1.69087 -0.706079 1.84459 0.330233 0.79259 -0.358024 0.930287
431 1 2 0 7.65243 14.2314 1.33509 0 0 0 0 0 0 0 0
432 1 2 0 9.06469 13.9552 0.894909 0 0 0 0 0 0 0 0
433 1 1 0 20.6812 1.43469 6.57632 -0.856799 1.68056 0.393771 1.92703 -0.476319 1.17449 0.0873938 1.27041
434 1 2 0 19.9424 1.8506 6.14176 0 0 0 0 0 0 0 0