2
# CELL(abcABC):  188.97261   188.97261   188.97261    90.00000    90.00000    90.00000  Step:           0  Bead:       0 velocities{atomic_unit}  cell{atomic_unit}
       O  5.28612e-05  2.52914e-04  1.05947e-04
       H -2.33409e-04 -5.68358e-06 -8.18169e-04
2
# CELL(abcABC):  188.97261   188.97261   188.97261    90.00000    90.00000    90.00000  Step:         200  Bead:       0 velocities{atomic_unit}  cell{atomic_unit}
       O  1.77872e-04 -3.66771e-05 -1.01601e-06
       H -3.82074e-04 -1.30298e-04  5.35289e-04
2
# CELL(abcABC):  188.97261   188.97261   188.97261    90.00000    90.00000    90.00000  Step:         400  Bead:       0 velocities{atomic_unit}  cell{atomic_unit}
       O -1.46048e-04 -2.64666e-04  8.92396e-05
       H  3.44508e-05  1.28336e-04 -8.42638e-05
2
# CELL(abcABC):  188.97261   188.97261   188.97261    90.00000    90.00000    90.00000  Step:         600  Bead:       0 velocities{atomic_unit}  cell{atomic_unit}
       O  7.75447e-05  3.44739e-05  1.13110e-04
       H  4.12544e-04  1.07363e-03 -5.05098e-05
2
# CELL(abcABC):  188.97261   188.97261   188.97261    90.00000    90.00000    90.00000  Step:         800  Bead:       0 velocities{atomic_unit}  cell{atomic_unit}
       O -4.14893e-06 -1.34205e-04 -9.32191e-05
       H  4.16322e-04 -9.89037e-06  2.12517e-04
2
# CELL(abcABC):  188.97261   188.97261   188.97261    90.00000    90.00000    90.00000  Step:        1000  Bead:       0 velocities{atomic_unit}  cell{atomic_unit}
       O -5.88920e-05  7.80839e-05  5.98799e-05
       H  8.28821e-06 -1.73736e-04  6.31669e-04
2
# CELL(abcABC):  188.97261   188.97261   188.97261    90.00000    90.00000    90.00000  Step:        1200  Bead:       0 velocities{atomic_unit}  cell{atomic_unit}
       O  6.71725e-05  2.46886e-05  2.12358e-04
       H  2.32100e-04 -8.47445e-04  2.12814e-04
2
# CELL(abcABC):  188.97261   188.97261   188.97261    90.00000    90.00000    90.00000  Step:        1400  Bead:       0 velocities{atomic_unit}  cell{atomic_unit}
       O -3.73077e-06 -7.22321e-05  4.32160e-05
       H  5.06202e-04  1.47723e-05 -8.16908e-04
2
# CELL(abcABC):  188.97261   188.97261   188.97261    90.00000    90.00000    90.00000  Step:        1600  Bead:       0 velocities{atomic_unit}  cell{atomic_unit}
       O  3.73985e-05 -2.54774e-05 -1.17472e-04
       H  2.28843e-04  4.30461e-04  1.62517e-04
2
# CELL(abcABC):  188.97261   188.97261   188.97261    90.00000    90.00000    90.00000  Step:        1800  Bead:       0 velocities{atomic_unit}  cell{atomic_unit}
       O  5.35721e-05 -9.56794e-05  7.98667e-05
       H  2.63847e-04  8.76282e-05 -4.71370e-04
2
# CELL(abcABC):  188.97261   188.97261   188.97261    90.00000    90.00000    90.00000  Step:        2000  Bead:       0 velocities{atomic_unit}  cell{atomic_unit}
       O  3.04618e-04  1.15036e-04  1.25631e-04
       H -2.20542e-04  9.12492e-04 -9.21883e-05
2
# CELL(abcABC):  188.97261   188.97261   188.97261    90.00000    90.00000    90.00000  Step:        2200  Bead:       0 velocities{atomic_unit}  cell{atomic_unit}
       O  1.38378e-04 -5.63621e-05 -5.34265e-05
       H -2.51623e-04  5.10033e-04 -2.30287e-04
2
# CELL(abcABC):  188.97261   188.97261   188.97261    90.00000    90.00000    90.00000  Step:        2400  Bead:       0 velocities{atomic_unit}  cell{atomic_unit}
       O  7.72603e-06  6.67491e-05 -6.53546e-05
       H -1.95973e-04 -2.01678e-04 -3.14812e-04
2
# CELL(abcABC):  188.97261   188.97261   188.97261    90.00000    90.00000    90.00000  Step:        2600  Bead:       0 velocities{atomic_unit}  cell{atomic_unit}
       O  1.14838e-04  1.88172e-04 -1.44328e-04
       H  3.07322e-04  3.51805e-04  4.73375e-04
2
# CELL(abcABC):  188.97261   188.97261   188.97261    90.00000    90.00000    90.00000  Step:        2800  Bead:       0 velocities{atomic_unit}  cell{atomic_unit}
       O -1.46496e-05 -7.09414e-05  1.37712e-05
       H -1.16917e-03  6.95577e-05  1.48632e-04
2
# CELL(abcABC):  188.97261   188.97261   188.97261    90.00000    90.00000    90.00000  Step:        3000  Bead:       0 velocities{atomic_unit}  cell{atomic_unit}
       O -2.94270e-05  1.27029e-04 -6.71421e-05
       H -3.74156e-04 -6.14488e-04 -2.31441e-04
2
# CELL(abcABC):  188.97261   188.97261   188.97261    90.00000    90.00000    90.00000  Step:        3200  Bead:       0 velocities{atomic_unit}  cell{atomic_unit}
       O  8.73844e-05  1.60760e-05 -7.31600e-05
       H -3.78983e-05  7.72666e-05 -9.58551e-04
2
# CELL(abcABC):  188.97261   188.97261   188.97261    90.00000    90.00000    90.00000  Step:        3400  Bead:       0 velocities{atomic_unit}  cell{atomic_unit}
       O  1.83747e-05  1.12791e-04  3.20329e-05
       H -4.30998e-04 -4.92487e-04 -4.25036e-04
2
# CELL(abcABC):  188.97261   188.97261   188.97261    90.00000    90.00000    90.00000  Step:        3600  Bead:       0 velocities{atomic_unit}  cell{atomic_unit}
       O  2.31509e-04 -5.15116e-05 -1.20817e-04
       H -4.39827e-04  1.50155e-04  1.72541e-05
2
# CELL(abcABC):  188.97261   188.97261   188.97261    90.00000    90.00000    90.00000  Step:        3800  Bead:       0 velocities{atomic_unit}  cell{atomic_unit}
       O  1.59978e-04 -8.25141e-05  1.36586e-05
       H -5.67223e-04  5.91633e-04 -9.44679e-04
2
# CELL(abcABC):  188.97261   188.97261   188.97261    90.00000    90.00000    90.00000  Step:        4000  Bead:       0 velocities{atomic_unit}  cell{atomic_unit}
       O -3.02891e-05  1.26916e-04 -1.79579e-05
       H  5.31699e-05 -1.14749e-05 -5.39454e-04
2
# CELL(abcABC):  188.97261   188.97261   188.97261    90.00000    90.00000    90.00000  Step:        4200  Bead:       0 velocities{atomic_unit}  cell{atomic_unit}
       O -1.04715e-04 -1.07519e-04  9.40395e-05
       H -1.56082e-04  2.33798e-04 -5.61073e-04
2
# CELL(abcABC):  188.97261   188.97261   188.97261    90.00000    90.00000    90.00000  Step:        4400  Bead:       0 velocities{atomic_unit}  cell{atomic_unit}
       O  1.50167e-04  8.38986e-05 -8.12523e-05
       H -2.41489e-04  6.73206e-05 -3.80162e-04
2
# CELL(abcABC):  188.97261   188.97261   188.97261    90.00000    90.00000    90.00000  Step:        4600  Bead:       0 velocities{atomic_unit}  cell{atomic_unit}
       O  1.53295e-04 -2.07853e-05 -1.85021e-05
       H  6.38865e-04 -2.31432e-05 -6.43489e-04
2
# CELL(abcABC):  188.97261   188.97261   188.97261    90.00000    90.00000    90.00000  Step:        4800  Bead:       0 velocities{atomic_unit}  cell{atomic_unit}
       O  1.13266e-04  4.54255e-05 -1.06656e-04
       H  1.95030e-05 -4.92302e-04 -1.40195e-04
2
# CELL(abcABC):  188.97261   188.97261   188.97261    90.00000    90.00000    90.00000  Step:        5000  Bead:       0 velocities{atomic_unit}  cell{atomic_unit}
       O -1.16817e-04 -7.69658e-06  5.54726e-05
       H -2.19613e-04  4.10220e-05  6.99241e-04
2
# CELL(abcABC):  188.97261   188.97261   188.97261    90.00000    90.00000    90.00000  Step:        5200  Bead:       0 velocities{atomic_unit}  cell{atomic_unit}
       O -3.21779e-05  8.42097e-05 -6.94322e-05
       H  2.09029e-04  5.40315e-04 -6.42682e-04
2
# CELL(abcABC):  188.97261   188.97261   188.97261    90.00000    90.00000    90.00000  Step:        5400  Bead:       0 velocities{atomic_unit}  cell{atomic_unit}
       O -1.14127e-05 -9.97681e-05 -2.38464e-05
       H  5.70511e-04 -3.90839e-04  3.39799e-05
2
# CELL(abcABC):  188.97261   188.97261   188.97261    90.00000    90.00000    90.00000  Step:        5600  Bead:       0 velocities{atomic_unit}  cell{atomic_unit}
       O -1.89960e-04  2.13592e-04 -7.61525e-05
       H -1.95650e-04  1.30553e-04  2.98346e-04
2
# CELL(abcABC):  188.97261   188.97261   188.97261    90.00000    90.00000    90.00000  Step:        5800  Bead:       0 velocities{atomic_unit}  cell{atomic_unit}
       O  1.29709e-05  8.41934e-05  4.55301e-05
       H -2.51907e-04 -1.63167e-04 -3.24356e-04
2
# CELL(abcABC):  188.97261   188.97261   188.97261    90.00000    90.00000    90.00000  Step:        6000  Bead:       0 velocities{atomic_unit}  cell{atomic_unit}
       O  7.51692e-05  1.10914e-04  1.62655e-05
       H  1.86668e-04  6.21377e-04  6.35228e-04
2
# CELL(abcABC):  188.97261   188.97261   188.97261    90.00000    90.00000    90.00000  Step:        6200  Bead:       0 velocities{atomic_unit}  cell{atomic_unit}
       O -3.43476e-06  1.38255e-05 -1.19205e-04
       H -2.72496e-05  1.21265e-04  7.55271e-04
2
# CELL(abcABC):  188.97261   188.97261   188.97261    90.00000    90.00000    90.00000  Step:        6400  Bead:       0 velocities{atomic_unit}  cell{atomic_unit}
       O  1.06107e-04  1.37999e-04  3.43152e-05
       H -1.78379e-04  1.38855e-04 -1.94416e-04
2
# CELL(abcABC):  188.97261   188.97261   188.97261    90.00000    90.00000    90.00000  Step:        6600  Bead:       0 velocities{atomic_unit}  cell{atomic_unit}
       O -7.71796e-05  1.53537e-04  1.01479e-05
       H  3.92702e-04  7.50170e-04  4.18110e-04
2
# CELL(abcABC):  188.97261   188.97261   188.97261    90.00000    90.00000    90.00000  Step:        6800  Bead:       0 velocities{atomic_unit}  cell{atomic_unit}
       O -3.12928e-05 -7.16082e-05  8.84229e-05
       H  1.19272e-04 -1.90521e-04  6.39104e-05
2
# CELL(abcABC):  188.97261   188.97261   188.97261    90.00000    90.00000    90.00000  Step:        7000  Bead:       0 velocities{atomic_unit}  cell{atomic_unit}
       O -4.19544e-05  1.42596e-04 -9.85346e-05
       H  6.23514e-04  2.68643e-04  2.07172e-04
2
# CELL(abcABC):  188.97261   188.97261   188.97261    90.00000    90.00000    90.00000  Step:        7200  Bead:       0 velocities{atomic_unit}  cell{atomic_unit}
       O -3.99926e-05  6.04534e-05 -1.11753e-04
       H -1.27702e-04  4.19222e-04 -2.67569e-04
2
# CELL(abcABC):  188.97261   188.97261   188.97261    90.00000    90.00000    90.00000  Step:        7400  Bead:       0 velocities{atomic_unit}  cell{atomic_unit}
       O -3.35326e-05  7.83630e-05  1.20667e-04
       H  1.70454e-04 -3.59890e-04 -1.28918e-05
2
# CELL(abcABC):  188.97261   188.97261   188.97261    90.00000    90.00000    90.00000  Step:        7600  Bead:       0 velocities{atomic_unit}  cell{atomic_unit}
       O -8.65350e-05  1.44173e-04  3.83106e-05
       H -2.28907e-04 -6.35306e-04  1.09577e-04
2
# CELL(abcABC):  188.97261   188.97261   188.97261    90.00000    90.00000    90.00000  Step:        7800  Bead:       0 velocities{atomic_unit}  cell{atomic_unit}
       O -3.19274e-05 -3.14574e-04 -9.90385e-05
       H -5.76540e-04  3.46816e-04 -7.45634e-05
2
# CELL(abcABC):  188.97261   188.97261   188.97261    90.00000    90.00000    90.00000  Step:        8000  Bead:       0 velocities{atomic_unit}  cell{atomic_unit}
       O -1.81077e-05  8.00813e-05 -2.31216e-05
       H -2.61973e-04 -4.09519e-04  4.26968e-04
2
# CELL(abcABC):  188.97261   188.97261   188.97261    90.00000    90.00000    90.00000  Step:        8200  Bead:       0 velocities{atomic_unit}  cell{atomic_unit}
       O  3.22228e-05  6.54737e-05  5.30997e-05
       H  1.08151e-04 -2.11420e-04  7.98249e-04
2
# CELL(abcABC):  188.97261   188.97261   188.97261    90.00000    90.00000    90.00000  Step:        8400  Bead:       0 velocities{atomic_unit}  cell{atomic_unit}
       O  1.41217e-04 -2.05919e-05 -1.05177e-04
       H -3.91154e-04  7.69540e-04  5.27101e-04
2
# CELL(abcABC):  188.97261   188.97261   188.97261    90.00000    90.00000    90.00000  Step:        8600  Bead:       0 velocities{atomic_unit}  cell{atomic_unit}
       O  1.25173e-04 -1.79140e-04  1.35033e-04
       H -1.37236e-04 -2.58182e-04 -1.92917e-04
2
# CELL(abcABC):  188.97261   188.97261   188.97261    90.00000    90.00000    90.00000  Step:        8800  Bead:       0 velocities{atomic_unit}  cell{atomic_unit}
       O -6.27759e-05 -2.42563e-04 -5.92197e-06
       H  4.34655e-04  3.27283e-04 -3.88685e-05
2
# CELL(abcABC):  188.97261   188.97261   188.97261    90.00000    90.00000    90.00000  Step:        9000  Bead:       0 velocities{atomic_unit}  cell{atomic_unit}
       O -8.45463e-05 -1.66924e-04 -1.11048e-04
       H -6.37378e-05  5.30893e-05  6.57114e-05
2
# CELL(abcABC):  188.97261   188.97261   188.97261    90.00000    90.00000    90.00000  Step:        9200  Bead:       0 velocities{atomic_unit}  cell{atomic_unit}
       O  2.55866e-05 -8.07031e-05 -1.57773e-04
       H  2.15825e-04  3.45953e-04 -6.73754e-05
2
# CELL(abcABC):  188.97261   188.97261   188.97261    90.00000    90.00000    90.00000  Step:        9400  Bead:       0 velocities{atomic_unit}  cell{atomic_unit}
       O  1.91107e-04  4.48708e-05 -7.02576e-05
       H -3.26395e-04  1.94230e-04  7.65190e-04
2
# CELL(abcABC):  188.97261   188.97261   188.97261    90.00000    90.00000    90.00000  Step:        9600  Bead:       0 velocities{atomic_unit}  cell{atomic_unit}
       O -9.18281e-05  1.49827e-05  8.86604e-05
       H  6.83222e-04 -3.33879e-05 -9.64157e-04
2
# CELL(abcABC):  188.97261   188.97261   188.97261    90.00000    90.00000    90.00000  Step:        9800  Bead:       0 velocities{atomic_unit}  cell{atomic_unit}
       O -1.41989e-04 -1.70277e-04 -1.03262e-04
       H  2.30083e-04 -3.82375e-04 -3.89271e-04
2
# CELL(abcABC):  188.97261   188.97261   188.97261    90.00000    90.00000    90.00000  Step:       10000  Bead:       0 velocities{atomic_unit}  cell{atomic_unit}
       O -7.41531e-05  7.08398e-05 -2.50491e-05
       H -6.08412e-04  1.30546e-04  1.13985e-04
2
# CELL(abcABC):  188.97261   188.97261   188.97261    90.00000    90.00000    90.00000  Step:       10200  Bead:       0 velocities{atomic_unit}  cell{atomic_unit}
       O -2.07273e-04 -9.32914e-05  3.39209e-05
       H  4.09913e-04 -4.93299e-04  4.65077e-05
2
# CELL(abcABC):  188.97261   188.97261   188.97261    90.00000    90.00000    90.00000  Step:       10400  Bead:       0 velocities{atomic_unit}  cell{atomic_unit}
       O -2.34198e-05 -2.06720e-05  1.32131e-04
       H  2.05507e-04 -5.87721e-04 -1.52924e-04
2
# CELL(abcABC):  188.97261   188.97261   188.97261    90.00000    90.00000    90.00000  Step:       10600  Bead:       0 velocities{atomic_unit}  cell{atomic_unit}
       O  1.13404e-04 -1.60837e-04 -1.12854e-05
       H -3.05405e-04 -1.26662e-04 -5.12171e-05
2
# CELL(abcABC):  188.97261   188.97261   188.97261    90.00000    90.00000    90.00000  Step:       10800  Bead:       0 velocities{atomic_unit}  cell{atomic_unit}
       O -3.30563e-05  1.66234e-04  3.97542e-05
       H  1.76067e-05 -6.18213e-04  3.71291e-04
2
# CELL(abcABC):  188.97261   188.97261   188.97261    90.00000    90.00000    90.00000  Step:       11000  Bead:       0 velocities{atomic_unit}  cell{atomic_unit}
       O  1.35928e-05  7.26369e-05  9.41163e-06
       H -3.33548e-04  5.89696e-04 -7.56137e-05
2
# CELL(abcABC):  188.97261   188.97261   188.97261    90.00000    90.00000    90.00000  Step:       11200  Bead:       0 velocities{atomic_unit}  cell{atomic_unit}
       O -6.65971e-05 -1.30818e-05  2.28028e-04
       H  6.13431e-04  9.55736e-05  2.55071e-04
2
# CELL(abcABC):  188.97261   188.97261   188.97261    90.00000    90.00000    90.00000  Step:       11400  Bead:       0 velocities{atomic_unit}  cell{atomic_unit}
       O  1.07011e-04  1.54250e-04  1.76815e-05
       H  8.66961e-04 -3.31314e-05  4.64045e-05
2
# CELL(abcABC):  188.97261   188.97261   188.97261    90.00000    90.00000    90.00000  Step:       11600  Bead:       0 velocities{atomic_unit}  cell{atomic_unit}
       O  2.71592e-05  2.90863e-05  1.72844e-04
       H -4.81896e-04  2.93243e-05  5.51682e-04
2
# CELL(abcABC):  188.97261   188.97261   188.97261    90.00000    90.00000    90.00000  Step:       11800  Bead:       0 velocities{atomic_unit}  cell{atomic_unit}
       O -1.50362e-04  6.01058e-05  3.47140e-05
       H -9.75272e-04  8.66448e-04  4.06578e-04
2
# CELL(abcABC):  188.97261   188.97261   188.97261    90.00000    90.00000    90.00000  Step:       12000  Bead:       0 velocities{atomic_unit}  cell{atomic_unit}
       O  1.39658e-05  2.07293e-04  1.51040e-04
       H  8.40236e-04 -8.74289e-04 -3.52985e-05
2
# CELL(abcABC):  188.97261   188.97261   188.97261    90.00000    90.00000    90.00000  Step:       12200  Bead:       0 velocities{atomic_unit}  cell{atomic_unit}
       O -7.44958e-05  8.97177e-06  1.70531e-06
       H  3.58109e-04 -8.63126e-06 -5.07137e-04
2
# CELL(abcABC):  188.97261   188.97261   188.97261    90.00000    90.00000    90.00000  Step:       12400  Bead:       0 velocities{atomic_unit}  cell{atomic_unit}
       O -1.57407e-05  2.17315e-06 -1.94429e-04
       H -3.95040e-04 -2.76493e-04 -4.33563e-04
2
# CELL(abcABC):  188.97261   188.97261   188.97261    90.00000    90.00000    90.00000  Step:       12600  Bead:       0 velocities{atomic_unit}  cell{atomic_unit}
       O  2.73571e-05 -5.83617e-05 -1.26844e-04
       H  4.27846e-05 -1.81702e-04 -3.79967e-04
2
# CELL(abcABC):  188.97261   188.97261   188.97261    90.00000    90.00000    90.00000  Step:       12800  Bead:       0 velocities{atomic_unit}  cell{atomic_unit}
       O -1.99205e-05  4.23747e-05 -4.49888e-05
       H  3.97009e-04 -1.11833e-05  5.79258e-05
2
# CELL(abcABC):  188.97261   188.97261   188.97261    90.00000    90.00000    90.00000  Step:       13000  Bead:       0 velocities{atomic_unit}  cell{atomic_unit}
       O -1.14769e-04  1.92945e-04 -5.26380e-05
       H -3.23068e-04  1.97995e-04  2.55674e-04
2
# CELL(abcABC):  188.97261   188.97261   188.97261    90.00000    90.00000    90.00000  Step:       13200  Bead:       0 velocities{atomic_unit}  cell{atomic_unit}
       O  2.64685e-04 -2.26988e-05  1.57679e-05
       H -8.93588e-04  7.81534e-04  6.13576e-04
2
# CELL(abcABC):  188.97261   188.97261   188.97261    90.00000    90.00000    90.00000  Step:       13400  Bead:       0 velocities{atomic_unit}  cell{atomic_unit}
       O -1.53925e-04 -7.63459e-05  5.52504e-06
       H  4.57307e-04  1.82837e-04 -1.88149e-04
2
# CELL(abcABC):  188.97261   188.97261   188.97261    90.00000    90.00000    90.00000  Step:       13600  Bead:       0 velocities{atomic_unit}  cell{atomic_unit}
       O  1.56120e-05 -1.78984e-04 -2.06815e-04
       H -2.43829e-04  4.93895e-04  5.76959e-04
2
# CELL(abcABC):  188.97261   188.97261   188.97261    90.00000    90.00000    90.00000  Step:       13800  Bead:       0 velocities{atomic_unit}  cell{atomic_unit}
       O  2.72849e-04 -4.75053e-05 -1.72386e-04
       H  4.77076e-04  6.79801e-04 -1.55804e-04
2
# CELL(abcABC):  188.97261   188.97261   188.97261    90.00000    90.00000    90.00000  Step:       14000  Bead:       0 velocities{atomic_unit}  cell{atomic_unit}
       O -1.08037e-04  4.13111e-05  9.06638e-05
       H -2.43342e-04  6.95661e-04  3.61449e-04
2
# CELL(abcABC):  188.97261   188.97261   188.97261    90.00000    90.00000    90.00000  Step:       14200  Bead:       0 velocities{atomic_unit}  cell{atomic_unit}
       O  4.86995e-05 -4.64221e-05 -1.96023e-04
       H  3.03740e-04  2.35415e-04 -3.06375e-04
2
# CELL(abcABC):  188.97261   188.97261   188.97261    90.00000    90.00000    90.00000  Step:       14400  Bead:       0 velocities{atomic_unit}  cell{atomic_unit}
       O  7.86459e-05 -8.04065e-05 -1.60771e-04
       H  8.11591e-05 -5.09976e-05 -1.27812e-04
2
# CELL(abcABC):  188.97261   188.97261   188.97261    90.00000    90.00000    90.00000  Step:       14600  Bead:       0 velocities{atomic_unit}  cell{atomic_unit}
       O  2.98739e-05 -8.95600e-07 -2.20310e-04
       H -4.61292e-04 -1.15311e-03 -7.30332e-04
2
# CELL(abcABC):  188.97261   188.97261   188.97261    90.00000    90.00000    90.00000  Step:       14800  Bead:       0 velocities{atomic_unit}  cell{atomic_unit}
       O  1.18568e-04 -4.14279e-05  3.54752e-05
       H  3.96255e-04 -5.28247e-04  1.85042e-04
2
# CELL(abcABC):  188.97261   188.97261   188.97261    90.00000    90.00000    90.00000  Step:       15000  Bead:       0 velocities{atomic_unit}  cell{atomic_unit}
       O -1.34228e-04 -5.55580e-05 -4.62684e-05
       H  3.98757e-04 -4.02665e-04  1.54368e-04
2
# CELL(abcABC):  188.97261   188.97261   188.97261    90.00000    90.00000    90.00000  Step:       15200  Bead:       0 velocities{atomic_unit}  cell{atomic_unit}
       O  1.66970e-04 -8.26714e-05 -4.52779e-05
       H -3.12315e-04 -2.87739e-04 -4.57447e-04
2
# CELL(abcABC):  188.97261   188.97261   188.97261    90.00000    90.00000    90.00000  Step:       15400  Bead:       0 velocities{atomic_unit}  cell{atomic_unit}
       O  6.71817e-06  1.71565e-04  1.57752e-04
       H  4.19150e-04  3.17710e-04 -6.52589e-04
2
# CELL(abcABC):  188.97261   188.97261   188.97261    90.00000    90.00000    90.00000  Step:       15600  Bead:       0 velocities{atomic_unit}  cell{atomic_unit}
       O  5.87347e-05  3.60747e-05  1.33636e-04
       H -5.63697e-04  7.22304e-04 -9.40068e-04
2
# CELL(abcABC):  188.97261   188.97261   188.97261    90.00000    90.00000    90.00000  Step:       15800  Bead:       0 velocities{atomic_unit}  cell{atomic_unit}
       O  1.54222e-04  1.21476e-05  6.28159e-05
       H -4.01886e-04 -1.90798e-04  9.42855e-04
2
# CELL(abcABC):  188.97261   188.97261   188.97261    90.00000    90.00000    90.00000  Step:       16000  Bead:       0 velocities{atomic_unit}  cell{atomic_unit}
       O -1.39590e-05 -1.56164e-04  3.49047e-05
       H -2.18565e-04 -4.08311e-04  2.73720e-04
2
# CELL(abcABC):  188.97261   188.97261   188.97261    90.00000    90.00000    90.00000  Step:       16200  Bead:       0 velocities{atomic_unit}  cell{atomic_unit}
       O  9.97835e-05  1.24937e-04 -3.33213e-05
       H  4.09617e-04 -3.92313e-04  2.77469e-04
2
# CELL(abcABC):  188.97261   188.97261   188.97261    90.00000    90.00000    90.00000  Step:       16400  Bead:       0 velocities{atomic_unit}  cell{atomic_unit}
       O  6.67985e-06 -4.23230e-05  7.95482e-05
       H -1.59869e-04 -9.65407e-05  2.62579e-05
2
# CELL(abcABC):  188.97261   188.97261   188.97261    90.00000    90.00000    90.00000  Step:       16600  Bead:       0 velocities{atomic_unit}  cell{atomic_unit}
       O -8.25764e-05 -2.79362e-05 -6.33341e-05
       H -1.06232e-04 -7.59785e-05  3.52026e-04
2
# CELL(abcABC):  188.97261   188.97261   188.97261    90.00000    90.00000    90.00000  Step:       16800  Bead:       0 velocities{atomic_unit}  cell{atomic_unit}
       O -2.54528e-05 -5.67438e-05  6.75698e-06
       H  3.33640e-04  4.66806e-04 -4.51386e-04
2
# CELL(abcABC):  188.97261   188.97261   188.97261    90.00000    90.00000    90.00000  Step:       17000  Bead:       0 velocities{atomic_unit}  cell{atomic_unit}
       O -1.24528e-05 -9.09340e-07  1.33787e-04
       H  5.92280e-04 -4.02988e-04 -1.33262e-04
2
# CELL(abcABC):  188.97261   188.97261   188.97261    90.00000    90.00000    90.00000  Step:       17200  Bead:       0 velocities{atomic_unit}  cell{atomic_unit}
       O  1.61237e-04  1.59158e-04 -3.79001e-05
       H -2.20182e-04  3.38471e-04  7.58413e-07
2
# CELL(abcABC):  188.97261   188.97261   188.97261    90.00000    90.00000    90.00000  Step:       17400  Bead:       0 velocities{atomic_unit}  cell{atomic_unit}
       O -4.07773e-05  1.85455e-05  2.46628e-05
       H -8.45954e-04  2.88296e-04  1.30114e-04
2
# CELL(abcABC):  188.97261   188.97261   188.97261    90.00000    90.00000    90.00000  Step:       17600  Bead:       0 velocities{atomic_unit}  cell{atomic_unit}
       O -4.49880e-05  1.55027e-04  6.39698e-06
       H  6.74105e-04 -1.86021e-04  7.15780e-04
2
# CELL(abcABC):  188.97261   188.97261   188.97261    90.00000    90.00000    90.00000  Step:       17800  Bead:       0 velocities{atomic_unit}  cell{atomic_unit}
       O -4.95234e-05 -5.49551e-06  1.62445e-04
       H -4.81837e-04 -1.13483e-03  8.77639e-05
2
# CELL(abcABC):  188.97261   188.97261   188.97261    90.00000    90.00000    90.00000  Step:       18000  Bead:       0 velocities{atomic_unit}  cell{atomic_unit}
       O  1.37777e-04  5.71146e-05 -1.19892e-04
       H  2.87107e-04 -2.70248e-04  2.50256e-04
2
# CELL(abcABC):  188.97261   188.97261   188.97261    90.00000    90.00000    90.00000  Step:       18200  Bead:       0 velocities{atomic_unit}  cell{atomic_unit}
       O  1.39213e-04  8.35832e-05 -5.61402e-05
       H -5.54695e-04 -2.43770e-04  4.80482e-04
2
# CELL(abcABC):  188.97261   188.97261   188.97261    90.00000    90.00000    90.00000  Step:       18400  Bead:       0 velocities{atomic_unit}  cell{atomic_unit}
       O  1.05054e-05  7.51389e-05  1.42672e-04
       H -5.62358e-04 -2.29059e-04 -1.04637e-04
2
# CELL(abcABC):  188.97261   188.97261   188.97261    90.00000    90.00000    90.00000  Step:       18600  Bead:       0 velocities{atomic_unit}  cell{atomic_unit}
       O  8.73079e-05  6.46229e-05 -7.83990e-05
       H  3.30801e-04  1.91013e-04  2.79721e-04
2
# CELL(abcABC):  188.97261   188.97261   188.97261    90.00000    90.00000    90.00000  Step:       18800  Bead:       0 velocities{atomic_unit}  cell{atomic_unit}
       O  4.17700e-05 -2.07137e-04  2.34503e-05
       H  1.22219e-04 -2.14809e-04  2.93705e-04
2
# CELL(abcABC):  188.97261   188.97261   188.97261    90.00000    90.00000    90.00000  Step:       19000  Bead:       0 velocities{atomic_unit}  cell{atomic_unit}
       O -1.05615e-04 -1.68049e-05  1.73854e-04
       H  5.31158e-05  7.84376e-04  6.24039e-04
2
# CELL(abcABC):  188.97261   188.97261   188.97261    90.00000    90.00000    90.00000  Step:       19200  Bead:       0 velocities{atomic_unit}  cell{atomic_unit}
       O  3.87158e-05 -6.35577e-06  2.14120e-05
       H  6.40980e-04 -4.17268e-04 -7.38248e-05
2
# CELL(abcABC):  188.97261   188.97261   188.97261    90.00000    90.00000    90.00000  Step:       19400  Bead:       0 velocities{atomic_unit}  cell{atomic_unit}
       O -3.84289e-05 -9.42660e-05 -1.55944e-04
       H  9.69957e-05 -1.54715e-04 -4.96456e-04
2
# CELL(abcABC):  188.97261   188.97261   188.97261    90.00000    90.00000    90.00000  Step:       19600  Bead:       0 velocities{atomic_unit}  cell{atomic_unit}
       O  1.24567e-04  5.75832e-05  6.09968e-05
       H -4.37982e-04  2.23681e-04 -2.18445e-04
2
# CELL(abcABC):  188.97261   188.97261   188.97261    90.00000    90.00000    90.00000  Step:       19800  Bead:       0 velocities{atomic_unit}  cell{atomic_unit}
       O  1.23434e-04  1.88776e-04  1.06860e-06
       H -5.22210e-04 -7.33586e-04 -3.56765e-05
2
# CELL(abcABC):  188.97261   188.97261   188.97261    90.00000    90.00000    90.00000  Step:       20000  Bead:       0 velocities{atomic_unit}  cell{atomic_unit}
       O  1.75218e-04 -1.11774e-04 -6.43136e-05
       H  7.44813e-05  3.32792e-04  2.91665e-04
2
# CELL(abcABC):  188.97261   188.97261   188.97261    90.00000    90.00000    90.00000  Step:       20200  Bead:       0 velocities{atomic_unit}  cell{atomic_unit}
       O  1.89969e-05 -4.32021e-05 -2.66052e-05
       H -3.11792e-04 -4.88546e-04 -3.43184e-04
2
# CELL(abcABC):  188.97261   188.97261   188.97261    90.00000    90.00000    90.00000  Step:       20400  Bead:       0 velocities{atomic_unit}  cell{atomic_unit}
       O -2.96426e-05 -1.33405e-04 -6.19191e-05
       H  5.74063e-04  3.89350e-04 -2.20229e-04
2
# CELL(abcABC):  188.97261   188.97261   188.97261    90.00000    90.00000    90.00000  Step:       20600  Bead:       0 velocities{atomic_unit}  cell{atomic_unit}
       O -8.27591e-05  7.22883e-05 -1.07568e-04
       H -1.13244e-03  2.71147e-04 -3.68622e-04
2
# CELL(abcABC):  188.97261   188.97261   188.97261    90.00000    90.00000    90.00000  Step:       20800  Bead:       0 velocities{atomic_unit}  cell{atomic_unit}
       O -3.48704e-05  1.16928e-04  1.79220e-04
       H -1.41723e-04  2.60147e-04 -8.43136e-05
2
# CELL(abcABC):  188.97261   188.97261   188.97261    90.00000    90.00000    90.00000  Step:       21000  Bead:       0 velocities{atomic_unit}  cell{atomic_unit}
       O  1.19648e-04  5.10035e-05  1.54500e-04
       H  2.00686e-04  1.36825e-04  3.62550e-04
2
# CELL(abcABC):  188.97261   188.97261   188.97261    90.00000    90.00000    90.00000  Step:       21200  Bead:       0 velocities{atomic_unit}  cell{atomic_unit}
       O  4.94266e-05  4.31183e-05 -1.41897e-05
       H  8.79726e-04 -6.36956e-04 -3.45326e-04
2
# CELL(abcABC):  188.97261   188.97261   188.97261    90.00000    90.00000    90.00000  Step:       21400  Bead:       0 velocities{atomic_unit}  cell{atomic_unit}
       O  1.09886e-04  1.16216e-04 -1.23962e-04
       H -1.50828e-04  9.56002e-05  7.24894e-04
2
# CELL(abcABC):  188.97261   188.97261   188.97261    90.00000    90.00000    90.00000  Step:       21600  Bead:       0 velocities{atomic_unit}  cell{atomic_unit}
       O  1.62773e-04  7.16738e-05 -7.68902e-05
       H  1.13558e-03 -3.37063e-04 -9.71256e-05
2
# CELL(abcABC):  188.97261   188.97261   188.97261    90.00000    90.00000    90.00000  Step:       21800  Bead:       0 velocities{atomic_unit}  cell{atomic_unit}
       O  1.07266e-04  7.69771e-05  1.37511e-04
       H  6.62070e-04  1.26951e-03 -5.18448e-06
2
# CELL(abcABC):  188.97261   188.97261   188.97261    90.00000    90.00000    90.00000  Step:       22000  Bead:       0 velocities{atomic_unit}  cell{atomic_unit}
       O  8.30384e-05  1.26981e-04  2.30206e-04
       H  2.99555e-04 -2.97889e-04 -2.08100e-05
2
# CELL(abcABC):  188.97261   188.97261   188.97261    90.00000    90.00000    90.00000  Step:       22200  Bead:       0 velocities{atomic_unit}  cell{atomic_unit}
       O  1.73467e-04  2.43261e-04  7.13636e-06
       H -4.38908e-04  5.41153e-05 -1.54614e-04
2
# CELL(abcABC):  188.97261   188.97261   188.97261    90.00000    90.00000    90.00000  Step:       22400  Bead:       0 velocities{atomic_unit}  cell{atomic_unit}
       O -1.41433e-04  1.00775e-04  5.56056e-05
       H  4.05575e-04  1.59479e-04 -4.06203e-04
2
# CELL(abcABC):  188.97261   188.97261   188.97261    90.00000    90.00000    90.00000  Step:       22600  Bead:       0 velocities{atomic_unit}  cell{atomic_unit}
       O -2.71997e-06  2.74595e-05  3.13960e-05
       H  2.10884e-04  1.43843e-05 -1.49357e-04
2