2
# CELL(abcABC):  188.97261   188.97261   188.97261    90.00000    90.00000    90.00000  Step:           0  Bead:       0 positions{angstrom}  cell{atomic_unit}
       O  9.69600e-01  0.00000e+00  0.00000e+00
       H  0.00000e+00  0.00000e+00  0.00000e+00
2
# CELL(abcABC):  188.97261   188.97261   188.97261    90.00000    90.00000    90.00000  Step:         200  Bead:       0 positions{angstrom}  cell{atomic_unit}
       O  9.58841e-01  2.66294e-02  1.69812e-01
       H  2.47427e-01  2.67596e-01 -4.31677e-01
2
# CELL(abcABC):  188.97261   188.97261   188.97261    90.00000    90.00000    90.00000  Step:         400  Bead:       0 positions{angstrom}  cell{atomic_unit}
       O  1.01089e+00 -1.36067e-01  2.21244e-01
       H  3.25712e-01 -4.78953e-01 -3.52413e-01
2
# CELL(abcABC):  188.97261   188.97261   188.97261    90.00000    90.00000    90.00000  Step:         600  Bead:       0 positions{angstrom}  cell{atomic_unit}
       O  1.04430e+00 -3.85883e-01  2.38010e-01
       H  2.17817e-01 -7.04631e-01 -1.36904e-01
2
# CELL(abcABC):  188.97261   188.97261   188.97261    90.00000    90.00000    90.00000  Step:         800  Bead:       0 positions{angstrom}  cell{atomic_unit}
       O  8.49840e-01 -3.00696e-01  9.14715e-02
       H  3.05110e-01 -1.02350e+00  4.09771e-01
2
# CELL(abcABC):  188.97261   188.97261   188.97261    90.00000    90.00000    90.00000  Step:        1000  Bead:       0 positions{angstrom}  cell{atomic_unit}
       O  7.81448e-01 -3.77455e-01  3.10134e-01
       H  3.46494e-03 -8.11091e-01  7.30404e-01
2
# CELL(abcABC):  188.97261   188.97261   188.97261    90.00000    90.00000    90.00000  Step:        1200  Bead:       0 positions{angstrom}  cell{atomic_unit}
       O  8.42223e-01 -3.88998e-01  3.87452e-01
       H -3.19486e-02 -7.90745e-01  5.35918e-01
2
# CELL(abcABC):  188.97261   188.97261   188.97261    90.00000    90.00000    90.00000  Step:        1400  Bead:       0 positions{angstrom}  cell{atomic_unit}
       O  9.12919e-01 -3.23826e-01  3.08148e-01
       H  3.31166e-01 -1.08496e+00  1.52965e-01
2
# CELL(abcABC):  188.97261   188.97261   188.97261    90.00000    90.00000    90.00000  Step:        1600  Bead:       0 positions{angstrom}  cell{atomic_unit}
       O  8.44873e-01 -3.05105e-01  3.06454e-01
       H  4.34373e-02 -8.24377e-01  4.61881e-01
2
# CELL(abcABC):  188.97261   188.97261   188.97261    90.00000    90.00000    90.00000  Step:        1800  Bead:       0 positions{angstrom}  cell{atomic_unit}
       O  9.57464e-01 -3.02574e-01  3.71933e-01
       H  5.63021e-01 -1.12362e+00  6.65199e-01
2
# CELL(abcABC):  188.97261   188.97261   188.97261    90.00000    90.00000    90.00000  Step:        2000  Bead:       0 positions{angstrom}  cell{atomic_unit}
       O  8.64072e-01 -3.55021e-01  3.25014e-01
       H  6.38593e-01 -1.29465e+00  4.53890e-01
2
# CELL(abcABC):  188.97261   188.97261   188.97261    90.00000    90.00000    90.00000  Step:        2200  Bead:       0 positions{angstrom}  cell{atomic_unit}
       O  9.32610e-01 -3.71274e-01  2.62261e-01
       H  4.87309e-01 -1.17656e+00  5.78730e-01
2
# CELL(abcABC):  188.97261   188.97261   188.97261    90.00000    90.00000    90.00000  Step:        2400  Bead:       0 positions{angstrom}  cell{atomic_unit}
       O  1.10001e+00 -2.87568e-01  1.32061e-01
       H  6.42483e-01 -1.05810e+00  5.18102e-01
2
# CELL(abcABC):  188.97261   188.97261   188.97261    90.00000    90.00000    90.00000  Step:        2600  Bead:       0 positions{angstrom}  cell{atomic_unit}
       O  1.22056e+00 -1.31790e-01  1.44041e-01
       H  8.21797e-01 -1.01360e+00  3.35084e-01
2
# CELL(abcABC):  188.97261   188.97261   188.97261    90.00000    90.00000    90.00000  Step:        2800  Bead:       0 positions{angstrom}  cell{atomic_unit}
       O  1.16077e+00 -1.95935e-01  2.05066e-01
       H  1.05329e+00 -1.01551e+00  7.07682e-01
2
# CELL(abcABC):  188.97261   188.97261   188.97261    90.00000    90.00000    90.00000  Step:        3000  Bead:       0 positions{angstrom}  cell{atomic_unit}
       O  1.10129e+00 -1.86143e-01  3.69561e-01
       H  4.71081e-01 -1.69641e-01  1.12067e+00
2
# CELL(abcABC):  188.97261   188.97261   188.97261    90.00000    90.00000    90.00000  Step:        3200  Bead:       0 positions{angstrom}  cell{atomic_unit}
       O  1.01738e+00 -1.51160e-01  3.43026e-01
       H  1.72943e-01  7.09356e-02  7.30260e-01
2
# CELL(abcABC):  188.97261   188.97261   188.97261    90.00000    90.00000    90.00000  Step:        3400  Bead:       0 positions{angstrom}  cell{atomic_unit}
       O  9.15924e-01 -1.17533e-01  3.76175e-01
       H  7.36572e-02 -5.57511e-01  6.35149e-01
2
# CELL(abcABC):  188.97261   188.97261   188.97261    90.00000    90.00000    90.00000  Step:        3600  Bead:       0 positions{angstrom}  cell{atomic_unit}
       O  9.71596e-01 -2.64292e-01  4.14313e-01
       H  5.16951e-02 -1.67494e-01  2.11281e-01
2
# CELL(abcABC):  188.97261   188.97261   188.97261    90.00000    90.00000    90.00000  Step:        3800  Bead:       0 positions{angstrom}  cell{atomic_unit}
       O  1.09154e+00 -3.40463e-01  4.53155e-01
       H  3.19126e-01 -1.92834e-01 -1.15130e-01
2
# CELL(abcABC):  188.97261   188.97261   188.97261    90.00000    90.00000    90.00000  Step:        4000  Bead:       0 positions{angstrom}  cell{atomic_unit}
       O  1.08062e+00 -3.45323e-01  3.62470e-01
       H  8.89844e-01 -4.13522e-01 -5.84941e-01
2
# CELL(abcABC):  188.97261   188.97261   188.97261    90.00000    90.00000    90.00000  Step:        4200  Bead:       0 positions{angstrom}  cell{atomic_unit}
       O  1.08096e+00 -2.19581e-01  2.91815e-01
       H  8.79889e-01 -1.72759e-01 -6.49753e-01
2
# CELL(abcABC):  188.97261   188.97261   188.97261    90.00000    90.00000    90.00000  Step:        4400  Bead:       0 positions{angstrom}  cell{atomic_unit}
       O  1.13661e+00 -2.88113e-01  2.00397e-01
       H  4.24202e-01 -5.78248e-03 -4.03809e-01
2
# CELL(abcABC):  188.97261   188.97261   188.97261    90.00000    90.00000    90.00000  Step:        4600  Bead:       0 positions{angstrom}  cell{atomic_unit}
       O  1.24818e+00 -3.28954e-01  1.01732e-01
       H  4.17073e-01 -1.18866e-01 -3.52060e-01
2
# CELL(abcABC):  188.97261   188.97261   188.97261    90.00000    90.00000    90.00000  Step:        4800  Bead:       0 positions{angstrom}  cell{atomic_unit}
       O  1.51700e+00 -1.28880e-01 -8.48888e-02
       H  5.43623e-01 -2.29755e-01 -2.13190e-01
2
# CELL(abcABC):  188.97261   188.97261   188.97261    90.00000    90.00000    90.00000  Step:        5000  Bead:       0 positions{angstrom}  cell{atomic_unit}
       O  1.34882e+00 -1.34351e-01  1.07464e-02
       H  9.30089e-01 -9.46340e-01 -3.54842e-01
2
# CELL(abcABC):  188.97261   188.97261   188.97261    90.00000    90.00000    90.00000  Step:        5200  Bead:       0 positions{angstrom}  cell{atomic_unit}
       O  1.37914e+00 -4.87168e-02  1.50977e-02
       H  4.08589e-01 -2.47176e-01  5.89924e-02
2
# CELL(abcABC):  188.97261   188.97261   188.97261    90.00000    90.00000    90.00000  Step:        5400  Bead:       0 positions{angstrom}  cell{atomic_unit}
       O  1.53343e+00  2.66426e-02 -5.86764e-02
       H  6.16335e-01  3.04561e-01  2.54936e-02
2
# CELL(abcABC):  188.97261   188.97261   188.97261    90.00000    90.00000    90.00000  Step:        5600  Bead:       0 positions{angstrom}  cell{atomic_unit}
       O  1.54980e+00  2.32484e-01  2.49142e-02
       H  6.02211e-01 -4.19504e-02  1.09628e-01
2
# CELL(abcABC):  188.97261   188.97261   188.97261    90.00000    90.00000    90.00000  Step:        5800  Bead:       0 positions{angstrom}  cell{atomic_unit}
       O  1.32355e+00  3.74706e-01 -6.05261e-03
       H  4.98724e-01 -5.32024e-02 -3.13290e-01
2
# CELL(abcABC):  188.97261   188.97261   188.97261    90.00000    90.00000    90.00000  Step:        6000  Bead:       0 positions{angstrom}  cell{atomic_unit}
       O  1.33368e+00  3.06960e-01 -7.66713e-02
       H  6.71433e-01  3.76167e-01 -7.76221e-01
2
# CELL(abcABC):  188.97261   188.97261   188.97261    90.00000    90.00000    90.00000  Step:        6200  Bead:       0 positions{angstrom}  cell{atomic_unit}
       O  1.25069e+00  3.16422e-01 -1.56235e-01
       H  3.68320e-01  4.43759e-01 -5.17592e-01
2
# CELL(abcABC):  188.97261   188.97261   188.97261    90.00000    90.00000    90.00000  Step:        6400  Bead:       0 positions{angstrom}  cell{atomic_unit}
       O  1.20115e+00  4.29502e-01 -2.65239e-01
       H  3.37699e-01  8.11287e-01 -4.88301e-01
2
# CELL(abcABC):  188.97261   188.97261   188.97261    90.00000    90.00000    90.00000  Step:        6600  Bead:       0 positions{angstrom}  cell{atomic_unit}
       O  1.28181e+00  4.60127e-01 -1.86944e-01
       H  5.59380e-01  8.60218e-01 -6.74605e-01
2
# CELL(abcABC):  188.97261   188.97261   188.97261    90.00000    90.00000    90.00000  Step:        6800  Bead:       0 positions{angstrom}  cell{atomic_unit}
       O  1.30648e+00  6.07722e-01 -2.94666e-01
       H  4.66965e-01  1.00502e+00 -5.50403e-01
2
# CELL(abcABC):  188.97261   188.97261   188.97261    90.00000    90.00000    90.00000  Step:        7000  Bead:       0 positions{angstrom}  cell{atomic_unit}
       O  1.30764e+00  5.60569e-01 -3.26740e-01
       H  4.61014e-01  9.46044e-01 -6.60404e-01
2
# CELL(abcABC):  188.97261   188.97261   188.97261    90.00000    90.00000    90.00000  Step:        7200  Bead:       0 positions{angstrom}  cell{atomic_unit}
       O  1.32398e+00  5.87392e-01 -4.63094e-01
       H  5.58280e-01  9.46747e-01 -9.29897e-01
2
# CELL(abcABC):  188.97261   188.97261   188.97261    90.00000    90.00000    90.00000  Step:        7400  Bead:       0 positions{angstrom}  cell{atomic_unit}
       O  1.26919e+00  6.03604e-01 -6.36304e-01
       H  6.13705e-01  8.07530e-01 -1.31751e+00
2
# CELL(abcABC):  188.97261   188.97261   188.97261    90.00000    90.00000    90.00000  Step:        7600  Bead:       0 positions{angstrom}  cell{atomic_unit}
       O  1.28719e+00  6.70421e-01 -7.01495e-01
       H  4.96440e-01  6.07857e-01 -1.25676e+00
2
# CELL(abcABC):  188.97261   188.97261   188.97261    90.00000    90.00000    90.00000  Step:        7800  Bead:       0 positions{angstrom}  cell{atomic_unit}
       O  1.09642e+00  6.02213e-01 -7.09135e-01
       H  2.62466e-01  8.25286e-01 -1.13393e+00
2
# CELL(abcABC):  188.97261   188.97261   188.97261    90.00000    90.00000    90.00000  Step:        8000  Bead:       0 positions{angstrom}  cell{atomic_unit}
       O  1.25955e+00  6.61787e-01 -6.81574e-01
       H  3.86031e-01  5.69656e-01 -1.08313e+00
2
# CELL(abcABC):  188.97261   188.97261   188.97261    90.00000    90.00000    90.00000  Step:        8200  Bead:       0 positions{angstrom}  cell{atomic_unit}
       O  1.20233e+00  8.48008e-01 -7.36960e-01
       H  3.05700e-01  5.04063e-01 -6.31805e-01
2
# CELL(abcABC):  188.97261   188.97261   188.97261    90.00000    90.00000    90.00000  Step:        8400  Bead:       0 positions{angstrom}  cell{atomic_unit}
       O  1.29460e+00  9.01378e-01 -6.96267e-01
       H  3.85287e-01  5.38892e-01 -7.15558e-01
2
# CELL(abcABC):  188.97261   188.97261   188.97261    90.00000    90.00000    90.00000  Step:        8600  Bead:       0 positions{angstrom}  cell{atomic_unit}
       O  1.41950e+00  9.97249e-01 -6.52061e-01
       H  5.13112e-01  9.41180e-01 -1.00894e+00
2
# CELL(abcABC):  188.97261   188.97261   188.97261    90.00000    90.00000    90.00000  Step:        8800  Bead:       0 positions{angstrom}  cell{atomic_unit}
       O  1.52732e+00  9.68687e-01 -5.93354e-01
       H  7.22186e-01  1.10714e+00 -1.13670e+00
2
# CELL(abcABC):  188.97261   188.97261   188.97261    90.00000    90.00000    90.00000  Step:        9000  Bead:       0 positions{angstrom}  cell{atomic_unit}
       O  1.45585e+00  8.31107e-01 -6.24546e-01
       H  8.28991e-01  7.18845e-01 -1.33601e+00
2
# CELL(abcABC):  188.97261   188.97261   188.97261    90.00000    90.00000    90.00000  Step:        9200  Bead:       0 positions{angstrom}  cell{atomic_unit}
       O  1.50965e+00  6.66090e-01 -6.29532e-01
       H  8.28235e-01  9.93583e-01 -1.27745e+00
2
# CELL(abcABC):  188.97261   188.97261   188.97261    90.00000    90.00000    90.00000  Step:        9400  Bead:       0 positions{angstrom}  cell{atomic_unit}
       O  1.46514e+00  6.26739e-01 -6.42216e-01
       H  5.67520e-01  8.84139e-01 -7.33847e-01
2
# CELL(abcABC):  188.97261   188.97261   188.97261    90.00000    90.00000    90.00000  Step:        9600  Bead:       0 positions{angstrom}  cell{atomic_unit}
       O  1.31391e+00  5.43761e-01 -6.62611e-01
       H  1.02808e+00  1.34649e+00 -1.42545e-01
2
# CELL(abcABC):  188.97261   188.97261   188.97261    90.00000    90.00000    90.00000  Step:        9800  Bead:       0 positions{angstrom}  cell{atomic_unit}
       O  1.40749e+00  4.90225e-01 -7.74848e-01
       H  1.63258e+00  1.25483e+00 -2.12681e-01
2
# CELL(abcABC):  188.97261   188.97261   188.97261    90.00000    90.00000    90.00000  Step:       10000  Bead:       0 positions{angstrom}  cell{atomic_unit}
       O  1.31851e+00  4.36161e-01 -7.67332e-01
       H  1.71519e+00  1.32087e+00 -9.21225e-01
2
# CELL(abcABC):  188.97261   188.97261   188.97261    90.00000    90.00000    90.00000  Step:       10200  Bead:       0 positions{angstrom}  cell{atomic_unit}
       O  1.23566e+00  3.53525e-01 -8.20360e-01
       H  1.95621e+00  1.01324e+00 -7.05299e-01
2
# CELL(abcABC):  188.97261   188.97261   188.97261    90.00000    90.00000    90.00000  Step:       10400  Bead:       0 positions{angstrom}  cell{atomic_unit}
       O  1.07222e+00  3.60956e-01 -7.21103e-01
       H  1.94197e+00  4.91784e-01 -1.12033e+00
2
# CELL(abcABC):  188.97261   188.97261   188.97261    90.00000    90.00000    90.00000  Step:       10600  Bead:       0 positions{angstrom}  cell{atomic_unit}
       O  1.02734e+00  4.09319e-01 -6.96785e-01
       H  1.86476e+00  2.72623e-01 -1.16956e+00
2
# CELL(abcABC):  188.97261   188.97261   188.97261    90.00000    90.00000    90.00000  Step:       10800  Bead:       0 positions{angstrom}  cell{atomic_unit}
       O  1.12138e+00  6.60046e-01 -6.55030e-01
       H  1.83112e+00  1.19316e-01 -9.87498e-01
2
# CELL(abcABC):  188.97261   188.97261   188.97261    90.00000    90.00000    90.00000  Step:       11000  Bead:       0 positions{angstrom}  cell{atomic_unit}
       O  1.17410e+00  6.53633e-01 -6.48643e-01
       H  1.58635e+00  6.97109e-01 -1.51788e+00
2
# CELL(abcABC):  188.97261   188.97261   188.97261    90.00000    90.00000    90.00000  Step:       11200  Bead:       0 positions{angstrom}  cell{atomic_unit}
       O  1.09044e+00  6.04940e-01 -6.73730e-01
       H  1.56393e+00  1.22326e+00 -1.27369e+00
2
# CELL(abcABC):  188.97261   188.97261   188.97261    90.00000    90.00000    90.00000  Step:       11400  Bead:       0 positions{angstrom}  cell{atomic_unit}
       O  1.08599e+00  6.32274e-01 -6.74471e-01
       H  1.62123e+00  1.35958e+00 -1.03934e+00
2
# CELL(abcABC):  188.97261   188.97261   188.97261    90.00000    90.00000    90.00000  Step:       11600  Bead:       0 positions{angstrom}  cell{atomic_unit}
       O  1.05296e+00  7.01168e-01 -6.19017e-01
       H  1.92771e+00  1.12481e+00 -6.41690e-01
2
# CELL(abcABC):  188.97261   188.97261   188.97261    90.00000    90.00000    90.00000  Step:       11800  Bead:       0 positions{angstrom}  cell{atomic_unit}
       O  9.34610e-01  6.43643e-01 -6.77343e-01
       H  1.08978e+00  1.60857e+00 -6.71942e-01
2
# CELL(abcABC):  188.97261   188.97261   188.97261    90.00000    90.00000    90.00000  Step:       12000  Bead:       0 positions{angstrom}  cell{atomic_unit}
       O  9.34854e-01  7.15489e-01 -6.74414e-01
       H  1.34666e+00  1.51101e+00 -1.08442e+00
2
# CELL(abcABC):  188.97261   188.97261   188.97261    90.00000    90.00000    90.00000  Step:       12200  Bead:       0 positions{angstrom}  cell{atomic_unit}
       O  9.07612e-01  5.81706e-01 -5.67809e-01
       H  1.61607e+00  1.22549e+00 -5.01598e-01
2
# CELL(abcABC):  188.97261   188.97261   188.97261    90.00000    90.00000    90.00000  Step:       12400  Bead:       0 positions{angstrom}  cell{atomic_unit}
       O  8.80884e-01  6.71895e-01 -7.57524e-01
       H  1.76266e+00  7.25730e-01 -1.14122e+00
2
# CELL(abcABC):  188.97261   188.97261   188.97261    90.00000    90.00000    90.00000  Step:       12600  Bead:       0 positions{angstrom}  cell{atomic_unit}
       O  1.00829e+00  7.70124e-01 -7.07010e-01
       H  1.76562e+00  2.91216e-01 -1.09808e+00
2
# CELL(abcABC):  188.97261   188.97261   188.97261    90.00000    90.00000    90.00000  Step:       12800  Bead:       0 positions{angstrom}  cell{atomic_unit}
       O  8.34381e-01  8.66541e-01 -7.91555e-01
       H  1.46385e+00  1.99879e-01 -4.69626e-01
2
# CELL(abcABC):  188.97261   188.97261   188.97261    90.00000    90.00000    90.00000  Step:       13000  Bead:       0 positions{angstrom}  cell{atomic_unit}
       O  9.27526e-01  8.70551e-01 -9.51575e-01
       H  1.12627e+00  4.10629e-01 -1.19315e-01
2
# CELL(abcABC):  188.97261   188.97261   188.97261    90.00000    90.00000    90.00000  Step:       13200  Bead:       0 positions{angstrom}  cell{atomic_unit}
       O  1.02371e+00  8.86370e-01 -8.92786e-01
       H  5.95947e-01  4.03853e-01 -1.70387e-01
2
# CELL(abcABC):  188.97261   188.97261   188.97261    90.00000    90.00000    90.00000  Step:       13400  Bead:       0 positions{angstrom}  cell{atomic_unit}
       O  1.10293e+00  9.76608e-01 -8.52182e-01
       H  1.10488e+00  4.68483e-01 -1.34613e-02
2
# CELL(abcABC):  188.97261   188.97261   188.97261    90.00000    90.00000    90.00000  Step:       13600  Bead:       0 positions{angstrom}  cell{atomic_unit}
       O  1.06661e+00  9.13660e-01 -7.91086e-01
       H  2.02296e+00  8.48732e-01 -7.41988e-01
2
# CELL(abcABC):  188.97261   188.97261   188.97261    90.00000    90.00000    90.00000  Step:       13800  Bead:       0 positions{angstrom}  cell{atomic_unit}
       O  9.86174e-01  9.28688e-01 -9.50742e-01
       H  1.48465e+00  3.77453e-01 -3.22366e-01
2
# CELL(abcABC):  188.97261   188.97261   188.97261    90.00000    90.00000    90.00000  Step:       14000  Bead:       0 positions{angstrom}  cell{atomic_unit}
       O  1.11921e+00  9.97342e-01 -9.36818e-01
       H  1.13784e+00  5.75406e-01 -7.25574e-02
2
# CELL(abcABC):  188.97261   188.97261   188.97261    90.00000    90.00000    90.00000  Step:       14200  Bead:       0 positions{angstrom}  cell{atomic_unit}
       O  1.04043e+00  9.63894e-01 -8.69603e-01
       H  1.32076e+00  6.61305e-01  1.90229e-02
2
# CELL(abcABC):  188.97261   188.97261   188.97261    90.00000    90.00000    90.00000  Step:       14400  Bead:       0 positions{angstrom}  cell{atomic_unit}
       O  1.05180e+00  9.46350e-01 -8.54170e-01
       H  1.38306e+00  6.39968e-01  5.46271e-03
2
# CELL(abcABC):  188.97261   188.97261   188.97261    90.00000    90.00000    90.00000  Step:       14600  Bead:       0 positions{angstrom}  cell{atomic_unit}
       O  1.25788e+00  9.85618e-01 -8.08922e-01
       H  1.27810e+00  1.21836e+00  1.25749e-01
2
# CELL(abcABC):  188.97261   188.97261   188.97261    90.00000    90.00000    90.00000  Step:       14800  Bead:       0 positions{angstrom}  cell{atomic_unit}
       O  1.44197e+00  8.25908e-01 -8.40452e-01
       H  1.05079e+00  7.96062e-01  5.42920e-02
2
# CELL(abcABC):  188.97261   188.97261   188.97261    90.00000    90.00000    90.00000  Step:       15000  Bead:       0 positions{angstrom}  cell{atomic_unit}
       O  1.21902e+00  7.99399e-01 -9.27725e-01
       H  9.33907e-01  7.90014e-01 -2.04574e-02
2
# CELL(abcABC):  188.97261   188.97261   188.97261    90.00000    90.00000    90.00000  Step:       15200  Bead:       0 positions{angstrom}  cell{atomic_unit}
       O  1.33448e+00  9.74496e-01 -9.95722e-01
       H  7.88051e-01  1.01474e+00 -1.80486e-01
2
# CELL(abcABC):  188.97261   188.97261   188.97261    90.00000    90.00000    90.00000  Step:       15400  Bead:       0 positions{angstrom}  cell{atomic_unit}
       O  1.25930e+00  9.27641e-01 -1.00773e+00
       H  3.08645e-01  1.01785e+00 -9.12322e-01
2
# CELL(abcABC):  188.97261   188.97261   188.97261    90.00000    90.00000    90.00000  Step:       15600  Bead:       0 positions{angstrom}  cell{atomic_unit}
       O  1.31392e+00  8.53201e-01 -8.63681e-01
       H  4.62413e-01  1.12333e+00 -1.29915e+00
2
# CELL(abcABC):  188.97261   188.97261   188.97261    90.00000    90.00000    90.00000  Step:       15800  Bead:       0 positions{angstrom}  cell{atomic_unit}
       O  1.30107e+00  8.24373e-01 -8.31864e-01
       H  3.92781e-01  1.13238e+00 -1.01059e+00
2
# CELL(abcABC):  188.97261   188.97261   188.97261    90.00000    90.00000    90.00000  Step:       16000  Bead:       0 positions{angstrom}  cell{atomic_unit}
       O  1.16758e+00  7.14509e-01 -9.18155e-01
       H  5.22458e-01  1.44128e+00 -7.89892e-01
2
# CELL(abcABC):  188.97261   188.97261   188.97261    90.00000    90.00000    90.00000  Step:       16200  Bead:       0 positions{angstrom}  cell{atomic_unit}
       O  1.22401e+00  7.29152e-01 -8.64461e-01
       H  5.96704e-01  1.43584e+00 -8.67170e-01
2
# CELL(abcABC):  188.97261   188.97261   188.97261    90.00000    90.00000    90.00000  Step:       16400  Bead:       0 positions{angstrom}  cell{atomic_unit}
       O  1.22037e+00  9.52901e-01 -9.50027e-01
       H  3.67765e-01  1.32479e+00 -6.97613e-01
2
# CELL(abcABC):  188.97261   188.97261   188.97261    90.00000    90.00000    90.00000  Step:       16600  Bead:       0 positions{angstrom}  cell{atomic_unit}
       O  1.18310e+00  8.85276e-01 -9.54397e-01
       H  8.20694e-01  6.85944e-01 -5.80944e-02
2
# CELL(abcABC):  188.97261   188.97261   188.97261    90.00000    90.00000    90.00000  Step:       16800  Bead:       0 positions{angstrom}  cell{atomic_unit}
       O  1.39781e+00  9.88818e-01 -9.62322e-01
       H  1.19299e+00  7.42614e-01 -5.44227e-02
2
# CELL(abcABC):  188.97261   188.97261   188.97261    90.00000    90.00000    90.00000  Step:       17000  Bead:       0 positions{angstrom}  cell{atomic_unit}
       O  1.60197e+00  8.57767e-01 -9.36046e-01
       H  1.81329e+00  8.54536e-01  2.04748e-02
2
# CELL(abcABC):  188.97261   188.97261   188.97261    90.00000    90.00000    90.00000  Step:       17200  Bead:       0 positions{angstrom}  cell{atomic_unit}
       O  1.77410e+00  8.71675e-01 -8.64991e-01
       H  1.66823e+00  1.25858e+00  4.01035e-02
2
# CELL(abcABC):  188.97261   188.97261   188.97261    90.00000    90.00000    90.00000  Step:       17400  Bead:       0 positions{angstrom}  cell{atomic_unit}
       O  1.82087e+00  8.34924e-01 -9.62192e-01
       H  1.59198e+00  9.38648e-01 -2.67687e-03
2
# CELL(abcABC):  188.97261   188.97261   188.97261    90.00000    90.00000    90.00000  Step:       17600  Bead:       0 positions{angstrom}  cell{atomic_unit}
       O  1.87418e+00  8.72721e-01 -8.36964e-01
       H  2.21436e+00  8.83270e-01  7.64454e-02
2
# CELL(abcABC):  188.97261   188.97261   188.97261    90.00000    90.00000    90.00000  Step:       17800  Bead:       0 positions{angstrom}  cell{atomic_unit}
       O  1.86543e+00  8.85028e-01 -8.55238e-01
       H  1.78011e+00  9.32928e-01  1.09524e-01
2
# CELL(abcABC):  188.97261   188.97261   188.97261    90.00000    90.00000    90.00000  Step:       18000  Bead:       0 positions{angstrom}  cell{atomic_unit}
       O  2.04975e+00  8.98114e-01 -9.26732e-01
       H  1.75475e+00  6.36833e-01 -2.94934e-02
2
# CELL(abcABC):  188.97261   188.97261   188.97261    90.00000    90.00000    90.00000  Step:       18200  Bead:       0 positions{angstrom}  cell{atomic_unit}
       O  1.99957e+00  1.09698e+00 -9.94620e-01
       H  1.37878e+00  8.27490e-01 -2.52148e-01
2
# CELL(abcABC):  188.97261   188.97261   188.97261    90.00000    90.00000    90.00000  Step:       18400  Bead:       0 positions{angstrom}  cell{atomic_unit}
       O  2.09361e+00  1.27070e+00 -1.02985e+00
       H  1.47827e+00  1.48528e+00 -2.70661e-01
2
# CELL(abcABC):  188.97261   188.97261   188.97261    90.00000    90.00000    90.00000  Step:       18600  Bead:       0 positions{angstrom}  cell{atomic_unit}
       O  2.04131e+00  1.33586e+00 -9.74445e-01
       H  1.56150e+00  1.15108e+00 -1.48773e-01
2
# CELL(abcABC):  188.97261   188.97261   188.97261    90.00000    90.00000    90.00000  Step:       18800  Bead:       0 positions{angstrom}  cell{atomic_unit}
       O  2.01414e+00  1.18437e+00 -9.98313e-01
       H  1.55912e+00  4.87649e-01 -5.00153e-01
2
# CELL(abcABC):  188.97261   188.97261   188.97261    90.00000    90.00000    90.00000  Step:       19000  Bead:       0 positions{angstrom}  cell{atomic_unit}
       O  1.97145e+00  1.22914e+00 -1.06346e+00
       H  2.03704e+00  6.26425e-01 -3.12175e-01
2
# CELL(abcABC):  188.97261   188.97261   188.97261    90.00000    90.00000    90.00000  Step:       19200  Bead:       0 positions{angstrom}  cell{atomic_unit}
       O  2.10874e+00  1.19738e+00 -9.30138e-01
       H  1.68506e+00  9.70455e-01 -1.04225e-01
2
# CELL(abcABC):  188.97261   188.97261   188.97261    90.00000    90.00000    90.00000  Step:       19400  Bead:       0 positions{angstrom}  cell{atomic_unit}
       O  2.08935e+00  1.10599e+00 -9.21615e-01
       H  1.72723e+00  7.52162e-01 -6.31939e-02
2
# CELL(abcABC):  188.97261   188.97261   188.97261    90.00000    90.00000    90.00000  Step:       19600  Bead:       0 positions{angstrom}  cell{atomic_unit}
       O  2.24140e+00  8.36882e-01 -1.05740e+00
       H  2.02556e+00  5.38849e-01 -1.58718e-01
2
# CELL(abcABC):  188.97261   188.97261   188.97261    90.00000    90.00000    90.00000  Step:       19800  Bead:       0 positions{angstrom}  cell{atomic_unit}
       O  2.26820e+00  8.17723e-01 -9.54145e-01
       H  1.88355e+00  8.28263e-01 -7.10763e-02
2
# CELL(abcABC):  188.97261   188.97261   188.97261    90.00000    90.00000    90.00000  Step:       20000  Bead:       0 positions{angstrom}  cell{atomic_unit}
       O  2.39630e+00  8.60854e-01 -1.02880e+00
       H  2.32304e+00  9.08642e-01 -6.44299e-02
2
# CELL(abcABC):  188.97261   188.97261   188.97261    90.00000    90.00000    90.00000  Step:       20200  Bead:       0 positions{angstrom}  cell{atomic_unit}
       O  2.49411e+00  6.78613e-01 -1.10581e+00
       H  2.20974e+00  1.01489e+00 -2.24289e-01
2
# CELL(abcABC):  188.97261   188.97261   188.97261    90.00000    90.00000    90.00000  Step:       20400  Bead:       0 positions{angstrom}  cell{atomic_unit}
       O  2.59829e+00  4.21677e-01 -1.06907e+00
       H  1.84300e+00  8.84819e-01 -7.05755e-01
2
# CELL(abcABC):  188.97261   188.97261   188.97261    90.00000    90.00000    90.00000  Step:       20600  Bead:       0 positions{angstrom}  cell{atomic_unit}
       O  2.50249e+00  3.19051e-01 -1.06798e+00
       H  1.91417e+00  9.22565e-01 -5.83641e-01
2
# CELL(abcABC):  188.97261   188.97261   188.97261    90.00000    90.00000    90.00000  Step:       20800  Bead:       0 positions{angstrom}  cell{atomic_unit}
       O  2.40752e+00  4.25108e-01 -9.41405e-01
       H  1.64340e+00  6.08176e-01 -3.86361e-01
2
# CELL(abcABC):  188.97261   188.97261   188.97261    90.00000    90.00000    90.00000  Step:       21000  Bead:       0 positions{angstrom}  cell{atomic_unit}
       O  2.55074e+00  5.82558e-01 -9.86025e-01
       H  1.67426e+00  4.50580e-01 -6.27959e-01
2
# CELL(abcABC):  188.97261   188.97261   188.97261    90.00000    90.00000    90.00000  Step:       21200  Bead:       0 positions{angstrom}  cell{atomic_unit}
       O  2.71752e+00  5.03479e-01 -8.41620e-01
       H  1.78823e+00  3.29378e-01 -5.98599e-01
2
# CELL(abcABC):  188.97261   188.97261   188.97261    90.00000    90.00000    90.00000  Step:       21400  Bead:       0 positions{angstrom}  cell{atomic_unit}
       O  2.78552e+00  5.13342e-01 -8.58964e-01
       H  2.11333e+00 -1.89953e-01 -7.06868e-01
2
# CELL(abcABC):  188.97261   188.97261   188.97261    90.00000    90.00000    90.00000  Step:       21600  Bead:       0 positions{angstrom}  cell{atomic_unit}
       O  2.72126e+00  6.24568e-01 -7.72585e-01
       H  2.48826e+00 -3.31114e-01 -6.98044e-01
2
# CELL(abcABC):  188.97261   188.97261   188.97261    90.00000    90.00000    90.00000  Step:       21800  Bead:       0 positions{angstrom}  cell{atomic_unit}
       O  2.72833e+00  7.76828e-01 -8.78572e-01
       H  2.11716e+00  2.13161e-01 -4.30995e-01
2
# CELL(abcABC):  188.97261   188.97261   188.97261    90.00000    90.00000    90.00000  Step:       22000  Bead:       0 positions{angstrom}  cell{atomic_unit}
       O  2.67724e+00  7.20945e-01 -8.62027e-01
       H  2.62944e+00  2.40403e-01 -6.41278e-03
2
# CELL(abcABC):  188.97261   188.97261   188.97261    90.00000    90.00000    90.00000  Step:       22200  Bead:       0 positions{angstrom}  cell{atomic_unit}
       O  2.82452e+00  8.19369e-01 -7.59012e-01
       H  2.18623e+00  7.67963e-02 -5.64462e-01
2
# CELL(abcABC):  188.97261   188.97261   188.97261    90.00000    90.00000    90.00000  Step:       22400  Bead:       0 positions{angstrom}  cell{atomic_unit}
       O  2.79137e+00  8.59341e-01 -7.15433e-01
       H  2.34813e+00  7.59676e-02 -1.07633e+00
2
# CELL(abcABC):  188.97261   188.97261   188.97261    90.00000    90.00000    90.00000  Step:       22600  Bead:       0 positions{angstrom}  cell{atomic_unit}
       O  2.68905e+00  8.12389e-01 -7.45183e-01
       H  2.66848e+00 -1.20980e-01 -1.05830e+00
2
# CELL(abcABC):  188.97261   188.97261   188.97261    90.00000    90.00000    90.00000  Step:       22800  Bead:       0 positions{angstrom}  cell{atomic_unit}
       O  2.72208e+00  8.59956e-01 -8.07145e-01
       H  2.67756e+00  4.98456e-02 -1.32240e+00
2
# CELL(abcABC):  188.97261   188.97261   188.97261    90.00000    90.00000    90.00000  Step:       23000  Bead:       0 positions{angstrom}  cell{atomic_unit}
       O  2.75480e+00  9.39755e-01 -1.02740e+00
       H  2.72532e+00  3.28495e-01 -1.77835e+00
2