2
# CELL(abcABC):  188.97261   188.97261   188.97261    90.00000    90.00000    90.00000  Step:           0  Bead:       0 v_centroid{atomic_unit}  cell{atomic_unit}
       O -1.63538e-04  5.74626e-05  2.69356e-07
       H  4.00902e-05  8.41361e-05 -3.26540e-04
2
# CELL(abcABC):  188.97261   188.97261   188.97261    90.00000    90.00000    90.00000  Step:          40  Bead:       0 v_centroid{atomic_unit}  cell{atomic_unit}
       O -1.60650e-04  5.68079e-05 -7.05038e-07
       H  3.43811e-05  7.88878e-05 -3.06014e-04
2
# CELL(abcABC):  188.97261   188.97261   188.97261    90.00000    90.00000    90.00000  Step:          80  Bead:       0 v_centroid{atomic_unit}  cell{atomic_unit}
       O -1.62951e-04  6.28585e-05  3.76825e-06
       H  1.91558e-05  3.01592e-06 -3.83545e-04
2
# CELL(abcABC):  188.97261   188.97261   188.97261    90.00000    90.00000    90.00000  Step:         120  Bead:       0 v_centroid{atomic_unit}  cell{atomic_unit}
       O -1.66114e-04  6.38069e-05 -4.00643e-06
       H -8.05016e-06  1.81369e-05 -2.69896e-04
2
# CELL(abcABC):  188.97261   188.97261   188.97261    90.00000    90.00000    90.00000  Step:         160  Bead:       0 v_centroid{atomic_unit}  cell{atomic_unit}
       O -1.69776e-04  6.82089e-05 -1.28732e-06
       H  3.66592e-05 -4.65082e-05 -3.14749e-04
2
# CELL(abcABC):  188.97261   188.97261   188.97261    90.00000    90.00000    90.00000  Step:         200  Bead:       0 v_centroid{atomic_unit}  cell{atomic_unit}
       O -1.65473e-04  6.65146e-05 -2.72609e-06
       H  3.31567e-05 -4.48701e-05 -2.83741e-04
2
# CELL(abcABC):  188.97261   188.97261   188.97261    90.00000    90.00000    90.00000  Step:         240  Bead:       0 v_centroid{atomic_unit}  cell{atomic_unit}
       O -1.58859e-04  6.37051e-05 -1.04597e-05
       H  1.94865e-05 -3.58710e-05 -1.49468e-04
2
# CELL(abcABC):  188.97261   188.97261   188.97261    90.00000    90.00000    90.00000  Step:         280  Bead:       0 v_centroid{atomic_unit}  cell{atomic_unit}
       O -1.59154e-04  5.84910e-05 -7.21653e-07
       H -2.58908e-05  6.64114e-05 -3.10357e-04
2
# CELL(abcABC):  188.97261   188.97261   188.97261    90.00000    90.00000    90.00000  Step:         320  Bead:       0 v_centroid{atomic_unit}  cell{atomic_unit}
       O -1.55619e-04  4.78175e-05 -7.55369e-06
       H -3.45183e-05  2.17321e-04 -1.95920e-04
2
# CELL(abcABC):  188.97261   188.97261   188.97261    90.00000    90.00000    90.00000  Step:         360  Bead:       0 v_centroid{atomic_unit}  cell{atomic_unit}
       O -1.52028e-04  8.21247e-05 -2.52169e-05
       H -1.28324e-04 -3.12902e-04  7.98126e-05
2
# CELL(abcABC):  188.97261   188.97261   188.97261    90.00000    90.00000    90.00000  Step:         400  Bead:       0 v_centroid{atomic_unit}  cell{atomic_unit}
       O -1.48149e-04  7.88590e-05 -2.55489e-05
       H -1.30441e-04 -2.84242e-04  9.25804e-05
2
# CELL(abcABC):  188.97261   188.97261   188.97261    90.00000    90.00000    90.00000  Step:         440  Bead:       0 v_centroid{atomic_unit}  cell{atomic_unit}
       O -1.55155e-04  8.73607e-05 -2.37641e-05
       H -3.24896e-05 -4.14020e-04  6.25771e-05
2
# CELL(abcABC):  188.97261   188.97261   188.97261    90.00000    90.00000    90.00000  Step:         480  Bead:       0 v_centroid{atomic_unit}  cell{atomic_unit}
       O -1.23735e-04  5.81715e-05 -4.73234e-05
       H -5.06735e-04  3.97630e-05  4.39631e-04
2
# CELL(abcABC):  188.97261   188.97261   188.97261    90.00000    90.00000    90.00000  Step:         520  Bead:       0 v_centroid{atomic_unit}  cell{atomic_unit}
       O -1.57870e-04  4.19973e-05 -6.02956e-05
       H  4.79760e-05  2.91482e-04  6.47166e-04
2
# CELL(abcABC):  188.97261   188.97261   188.97261    90.00000    90.00000    90.00000  Step:         560  Bead:       0 v_centroid{atomic_unit}  cell{atomic_unit}
       O -1.31282e-04  4.92200e-05 -6.18904e-05
       H -3.31577e-04  1.60268e-04  6.77840e-04
2
# CELL(abcABC):  188.97261   188.97261   188.97261    90.00000    90.00000    90.00000  Step:         600  Bead:       0 v_centroid{atomic_unit}  cell{atomic_unit}
       O -1.22570e-04  5.34105e-05 -6.28862e-05
       H -4.32545e-04  7.92071e-05  6.98351e-04
2
# CELL(abcABC):  188.97261   188.97261   188.97261    90.00000    90.00000    90.00000  Step:         640  Bead:       0 v_centroid{atomic_unit}  cell{atomic_unit}
       O -1.34483e-04  4.53204e-05 -6.91720e-05
       H -1.70181e-04  1.79062e-04  8.07367e-04
2
# CELL(abcABC):  188.97261   188.97261   188.97261    90.00000    90.00000    90.00000  Step:         680  Bead:       0 v_centroid{atomic_unit}  cell{atomic_unit}
       O -1.21006e-04  5.44410e-05 -7.47259e-05
       H -3.88966e-04  3.61855e-05  8.94912e-04
2
# CELL(abcABC):  188.97261   188.97261   188.97261    90.00000    90.00000    90.00000  Step:         720  Bead:       0 v_centroid{atomic_unit}  cell{atomic_unit}
       O -1.10659e-04  6.41207e-05 -1.09317e-04
       H -5.60607e-04 -1.14584e-04  1.44306e-03
2
# CELL(abcABC):  188.97261   188.97261   188.97261    90.00000    90.00000    90.00000  Step:         760  Bead:       0 v_centroid{atomic_unit}  cell{atomic_unit}
       O -1.05256e-04  6.09396e-05 -1.21370e-04
       H -6.46924e-04 -6.38677e-05  1.63431e-03
2
# CELL(abcABC):  188.97261   188.97261   188.97261    90.00000    90.00000    90.00000  Step:         800  Bead:       0 v_centroid{atomic_unit}  cell{atomic_unit}
       O -8.68619e-05  6.64391e-05 -1.36851e-04
       H -9.20326e-04 -1.58408e-04  1.88239e-03
2
# CELL(abcABC):  188.97261   188.97261   188.97261    90.00000    90.00000    90.00000  Step:         840  Bead:       0 v_centroid{atomic_unit}  cell{atomic_unit}
       O -6.98074e-05  7.02693e-05 -1.79824e-04
       H -1.20546e-03 -2.13585e-04  2.56269e-03
2
# CELL(abcABC):  188.97261   188.97261   188.97261    90.00000    90.00000    90.00000  Step:         880  Bead:       0 v_centroid{atomic_unit}  cell{atomic_unit}
       O -7.39881e-05  6.48694e-05 -1.76366e-04
       H -1.14370e-03 -1.26075e-04  2.50722e-03
2
# CELL(abcABC):  188.97261   188.97261   188.97261    90.00000    90.00000    90.00000  Step:         920  Bead:       0 v_centroid{atomic_unit}  cell{atomic_unit}
       O -7.80393e-05  8.03059e-05 -2.01555e-04
       H -1.10697e-03 -3.60356e-04  2.90357e-03
2
# CELL(abcABC):  188.97261   188.97261   188.97261    90.00000    90.00000    90.00000  Step:         960  Bead:       0 v_centroid{atomic_unit}  cell{atomic_unit}
       O -7.30172e-05  6.78549e-05 -2.08534e-04
       H -1.19393e-03 -1.59892e-04  3.01345e-03
2
# CELL(abcABC):  188.97261   188.97261   188.97261    90.00000    90.00000    90.00000  Step:        1000  Bead:       0 v_centroid{atomic_unit}  cell{atomic_unit}
       O -6.66065e-05  3.18650e-05 -2.37899e-04
       H -1.29522e-03  4.11205e-04  3.47963e-03
2
# CELL(abcABC):  188.97261   188.97261   188.97261    90.00000    90.00000    90.00000  Step:        1040  Bead:       0 v_centroid{atomic_unit}  cell{atomic_unit}
       O -4.91223e-05  3.12424e-05 -2.50492e-04
       H -1.57035e-03  4.20149e-04  3.67982e-03
2
# CELL(abcABC):  188.97261   188.97261   188.97261    90.00000    90.00000    90.00000  Step:        1080  Bead:       0 v_centroid{atomic_unit}  cell{atomic_unit}
       O -4.77910e-05  2.97349e-05 -2.59093e-04
       H -1.59950e-03  4.47204e-04  3.81534e-03
2
# CELL(abcABC):  188.97261   188.97261   188.97261    90.00000    90.00000    90.00000  Step:        1120  Bead:       0 v_centroid{atomic_unit}  cell{atomic_unit}
       O -5.05986e-05  1.73820e-05 -2.57921e-04
       H -1.55776e-03  6.44390e-04  3.79638e-03
2
# CELL(abcABC):  188.97261   188.97261   188.97261    90.00000    90.00000    90.00000  Step:        1160  Bead:       0 v_centroid{atomic_unit}  cell{atomic_unit}
       O -7.44280e-05  3.12040e-05 -2.58509e-04
       H -1.17499e-03  4.23225e-04  3.80629e-03
2
# CELL(abcABC):  188.97261   188.97261   188.97261    90.00000    90.00000    90.00000  Step:        1200  Bead:       0 v_centroid{atomic_unit}  cell{atomic_unit}
       O -8.80791e-05  3.49750e-05 -2.67498e-04
       H -9.63182e-04  3.65271e-04  3.94835e-03
2
# CELL(abcABC):  188.97261   188.97261   188.97261    90.00000    90.00000    90.00000  Step:        1240  Bead:       0 v_centroid{atomic_unit}  cell{atomic_unit}
       O -1.04048e-04  4.87186e-05 -2.35326e-04
       H -6.98352e-04  1.42691e-04  3.43910e-03
2
# CELL(abcABC):  188.97261   188.97261   188.97261    90.00000    90.00000    90.00000  Step:        1280  Bead:       0 v_centroid{atomic_unit}  cell{atomic_unit}
       O -9.19257e-05  5.80897e-05 -2.08141e-04
       H -8.84174e-04 -8.63513e-06  3.00842e-03
2
# CELL(abcABC):  188.97261   188.97261   188.97261    90.00000    90.00000    90.00000  Step:        1320  Bead:       0 v_centroid{atomic_unit}  cell{atomic_unit}
       O -9.06830e-05  6.44548e-05 -1.92652e-04
       H -9.13477e-04 -1.05936e-04  2.76136e-03
2
# CELL(abcABC):  188.97261   188.97261   188.97261    90.00000    90.00000    90.00000  Step:        1360  Bead:       0 v_centroid{atomic_unit}  cell{atomic_unit}
       O -9.13276e-05  5.91433e-05 -1.88377e-04
       H -9.19046e-04 -1.54651e-05  2.69150e-03
2
# CELL(abcABC):  188.97261   188.97261   188.97261    90.00000    90.00000    90.00000  Step:        1400  Bead:       0 v_centroid{atomic_unit}  cell{atomic_unit}
       O -1.14497e-04  1.72107e-05 -1.61524e-04
       H -5.68389e-04  6.56819e-04  2.26309e-03
2
# CELL(abcABC):  188.97261   188.97261   188.97261    90.00000    90.00000    90.00000  Step:        1440  Bead:       0 v_centroid{atomic_unit}  cell{atomic_unit}
       O -1.24365e-04  1.41495e-05 -1.76750e-04
       H -3.94708e-04  6.98765e-04  2.50693e-03
2
# CELL(abcABC):  188.97261   188.97261   188.97261    90.00000    90.00000    90.00000  Step:        1480  Bead:       0 v_centroid{atomic_unit}  cell{atomic_unit}
       O -1.36645e-04  1.92083e-05 -1.82759e-04
       H -1.93736e-04  6.16111e-04  2.60308e-03
2
# CELL(abcABC):  188.97261   188.97261   188.97261    90.00000    90.00000    90.00000  Step:        1520  Bead:       0 v_centroid{atomic_unit}  cell{atomic_unit}
       O -1.41012e-04  2.61112e-05 -1.75486e-04
       H -1.47977e-04  5.15722e-04  2.48466e-03
2
# CELL(abcABC):  188.97261   188.97261   188.97261    90.00000    90.00000    90.00000  Step:        1560  Bead:       0 v_centroid{atomic_unit}  cell{atomic_unit}
       O -1.34140e-04  3.96496e-05 -1.69767e-04
       H -2.48946e-04  2.97658e-04  2.39491e-03
2
# CELL(abcABC):  188.97261   188.97261   188.97261    90.00000    90.00000    90.00000  Step:        1600  Bead:       0 v_centroid{atomic_unit}  cell{atomic_unit}
       O -1.14776e-04  2.77828e-05 -2.04401e-04
       H -5.62962e-04  4.88613e-04  2.94382e-03
2
# CELL(abcABC):  188.97261   188.97261   188.97261    90.00000    90.00000    90.00000  Step:        1640  Bead:       0 v_centroid{atomic_unit}  cell{atomic_unit}
       O -1.18273e-04  4.42312e-05 -2.21773e-04
       H -5.10482e-04  2.28704e-04  3.21919e-03
2
# CELL(abcABC):  188.97261   188.97261   188.97261    90.00000    90.00000    90.00000  Step:        1680  Bead:       0 v_centroid{atomic_unit}  cell{atomic_unit}
       O -1.07500e-04  3.70416e-05 -2.25014e-04
       H -6.99456e-04  3.49834e-04  3.26837e-03
2
# CELL(abcABC):  188.97261   188.97261   188.97261    90.00000    90.00000    90.00000  Step:        1720  Bead:       0 v_centroid{atomic_unit}  cell{atomic_unit}
       O -1.03749e-04  3.79748e-05 -2.04139e-04
       H -7.48016e-04  3.30739e-04  2.93840e-03
2
# CELL(abcABC):  188.97261   188.97261   188.97261    90.00000    90.00000    90.00000  Step:        1760  Bead:       0 v_centroid{atomic_unit}  cell{atomic_unit}
       O -1.10705e-04  4.25215e-05 -1.65297e-04
       H -6.37589e-04  2.58564e-04  2.32186e-03
2
# CELL(abcABC):  188.97261   188.97261   188.97261    90.00000    90.00000    90.00000  Step:        1800  Bead:       0 v_centroid{atomic_unit}  cell{atomic_unit}
       O -1.21094e-04  4.36580e-05 -1.16628e-04
       H -4.88828e-04  2.46817e-04  1.54728e-03
2
# CELL(abcABC):  188.97261   188.97261   188.97261    90.00000    90.00000    90.00000  Step:        1840  Bead:       0 v_centroid{atomic_unit}  cell{atomic_unit}
       O -1.31270e-04  4.97953e-05 -6.17500e-05
       H -3.19687e-04  1.46430e-04  6.77134e-04
2
# CELL(abcABC):  188.97261   188.97261   188.97261    90.00000    90.00000    90.00000  Step:        1880  Bead:       0 v_centroid{atomic_unit}  cell{atomic_unit}
       O -1.31805e-04  3.85612e-05 -1.26683e-05
       H -2.23609e-04  2.90610e-04 -9.09136e-05
2
# CELL(abcABC):  188.97261   188.97261   188.97261    90.00000    90.00000    90.00000  Step:        1920  Bead:       0 v_centroid{atomic_unit}  cell{atomic_unit}
       O -1.42938e-04  5.02939e-05  1.33420e-05
       H -1.96063e-05  9.37367e-05 -5.00344e-04
2
# CELL(abcABC):  188.97261   188.97261   188.97261    90.00000    90.00000    90.00000  Step:        1960  Bead:       0 v_centroid{atomic_unit}  cell{atomic_unit}
       O -1.49117e-04  5.08389e-05  5.11820e-05
       H  1.51140e-04  5.67595e-05 -1.09183e-03
2
# CELL(abcABC):  188.97261   188.97261   188.97261    90.00000    90.00000    90.00000  Step:        2000  Bead:       0 v_centroid{atomic_unit}  cell{atomic_unit}
       O -1.57125e-04  4.99244e-05  8.62121e-05
       H  2.58508e-04  7.89749e-05 -1.65037e-03
2
# CELL(abcABC):  188.97261   188.97261   188.97261    90.00000    90.00000    90.00000  Step:        2040  Bead:       0 v_centroid{atomic_unit}  cell{atomic_unit}
       O -1.60271e-04  4.11061e-05  1.18018e-04
       H  2.99937e-04  2.22272e-04 -2.15631e-03
2
# CELL(abcABC):  188.97261   188.97261   188.97261    90.00000    90.00000    90.00000  Step:        2080  Bead:       0 v_centroid{atomic_unit}  cell{atomic_unit}
       O -1.66389e-04  3.34724e-05  1.19864e-04
       H  4.06647e-04  3.39699e-04 -2.18439e-03
2
# CELL(abcABC):  188.97261   188.97261   188.97261    90.00000    90.00000    90.00000  Step:        2120  Bead:       0 v_centroid{atomic_unit}  cell{atomic_unit}
       O -1.71144e-04  3.04190e-05  1.11144e-04
       H  4.73994e-04  3.91340e-04 -2.04700e-03
2
# CELL(abcABC):  188.97261   188.97261   188.97261    90.00000    90.00000    90.00000  Step:        2160  Bead:       0 v_centroid{atomic_unit}  cell{atomic_unit}
       O -1.60813e-04  3.41129e-05  1.15023e-04
       H  3.03603e-04  3.35196e-04 -2.10938e-03
2
# CELL(abcABC):  188.97261   188.97261   188.97261    90.00000    90.00000    90.00000  Step:        2200  Bead:       0 v_centroid{atomic_unit}  cell{atomic_unit}
       O -1.52917e-04  3.61493e-05  1.17793e-04
       H  1.96152e-04  2.95903e-04 -2.15110e-03
2
# CELL(abcABC):  188.97261   188.97261   188.97261    90.00000    90.00000    90.00000  Step:        2240  Bead:       0 v_centroid{atomic_unit}  cell{atomic_unit}
       O -1.53196e-04  3.35166e-05  1.07461e-04
       H  2.03230e-04  3.36657e-04 -1.98676e-03
2
# CELL(abcABC):  188.97261   188.97261   188.97261    90.00000    90.00000    90.00000  Step:        2280  Bead:       0 v_centroid{atomic_unit}  cell{atomic_unit}
       O -1.55752e-04  2.83747e-05  8.50412e-05
       H  2.40581e-04  4.19534e-04 -1.63129e-03
2
# CELL(abcABC):  188.97261   188.97261   188.97261    90.00000    90.00000    90.00000  Step:        2320  Bead:       0 v_centroid{atomic_unit}  cell{atomic_unit}
       O -1.53512e-04  2.98500e-05  7.87024e-05
       H  2.03660e-04  3.96648e-04 -1.53085e-03
2
# CELL(abcABC):  188.97261   188.97261   188.97261    90.00000    90.00000    90.00000  Step:        2360  Bead:       0 v_centroid{atomic_unit}  cell{atomic_unit}
       O -1.53528e-04  2.28422e-05  6.60931e-05
       H  1.75726e-04  5.18874e-04 -1.33425e-03
2
# CELL(abcABC):  188.97261   188.97261   188.97261    90.00000    90.00000    90.00000  Step:        2400  Bead:       0 v_centroid{atomic_unit}  cell{atomic_unit}
       O -1.54636e-04  2.76783e-05  5.02125e-05
       H  1.87024e-04  4.44560e-04 -1.08296e-03
2
# CELL(abcABC):  188.97261   188.97261   188.97261    90.00000    90.00000    90.00000  Step:        2440  Bead:       0 v_centroid{atomic_unit}  cell{atomic_unit}
       O -1.52931e-04  3.12565e-05  4.57029e-05
       H  1.68674e-04  3.84365e-04 -1.01028e-03
2
# CELL(abcABC):  188.97261   188.97261   188.97261    90.00000    90.00000    90.00000  Step:        2480  Bead:       0 v_centroid{atomic_unit}  cell{atomic_unit}
       O -1.45316e-04  2.84653e-05  3.82643e-05
       H  7.27801e-05  4.18932e-04 -8.89055e-04
2
# CELL(abcABC):  188.97261   188.97261   188.97261    90.00000    90.00000    90.00000  Step:        2520  Bead:       0 v_centroid{atomic_unit}  cell{atomic_unit}
       O -1.42492e-04  2.79250e-05  2.63901e-05
       H  1.81308e-05  4.31340e-04 -7.01811e-04
2
# CELL(abcABC):  188.97261   188.97261   188.97261    90.00000    90.00000    90.00000  Step:        2560  Bead:       0 v_centroid{atomic_unit}  cell{atomic_unit}
       O -1.53942e-04  3.14931e-05  1.96008e-05
       H  1.71101e-04  3.85922e-04 -5.97672e-04
2
# CELL(abcABC):  188.97261   188.97261   188.97261    90.00000    90.00000    90.00000  Step:        2600  Bead:       0 v_centroid{atomic_unit}  cell{atomic_unit}
       O -1.57952e-04  2.19454e-05  6.38905e-06
       H  2.44027e-04  5.33856e-04 -3.86786e-04
2
# CELL(abcABC):  188.97261   188.97261   188.97261    90.00000    90.00000    90.00000  Step:        2640  Bead:       0 v_centroid{atomic_unit}  cell{atomic_unit}
       O -1.45766e-04  1.34809e-05  6.34323e-06
       H  5.47645e-05  6.66593e-04 -3.85533e-04
2
# CELL(abcABC):  188.97261   188.97261   188.97261    90.00000    90.00000    90.00000  Step:        2680  Bead:       0 v_centroid{atomic_unit}  cell{atomic_unit}
       O -1.40762e-04  1.33184e-05  3.66707e-06
       H  1.57515e-05  6.53420e-04 -3.37958e-04
2
# CELL(abcABC):  188.97261   188.97261   188.97261    90.00000    90.00000    90.00000  Step:        2720  Bead:       0 v_centroid{atomic_unit}  cell{atomic_unit}
       O -1.41063e-04  1.80827e-05 -4.19522e-06
       H -4.08765e-06  5.87390e-04 -2.16261e-04
2
# CELL(abcABC):  188.97261   188.97261   188.97261    90.00000    90.00000    90.00000  Step:        2760  Bead:       0 v_centroid{atomic_unit}  cell{atomic_unit}
       O -1.48239e-04  1.17553e-05 -1.06201e-05
       H  4.62602e-05  7.12603e-04 -1.22291e-04
2
# CELL(abcABC):  188.97261   188.97261   188.97261    90.00000    90.00000    90.00000  Step:        2800  Bead:       0 v_centroid{atomic_unit}  cell{atomic_unit}
       O -1.52441e-04  6.52636e-06 -1.64596e-05
       H  1.21792e-04  7.92161e-04 -2.84840e-05
2
# CELL(abcABC):  188.97261   188.97261   188.97261    90.00000    90.00000    90.00000  Step:        2840  Bead:       0 v_centroid{atomic_unit}  cell{atomic_unit}
       O -1.48404e-04  8.08280e-06 -2.73881e-05
       H  1.47403e-04  7.32492e-04  1.56296e-04
2
# CELL(abcABC):  188.97261   188.97261   188.97261    90.00000    90.00000    90.00000  Step:        2880  Bead:       0 v_centroid{atomic_unit}  cell{atomic_unit}
       O -1.50654e-04 -6.13353e-09 -3.23907e-05
       H  1.79320e-04  8.62371e-04  2.35227e-04
2
# CELL(abcABC):  188.97261   188.97261   188.97261    90.00000    90.00000    90.00000  Step:        2920  Bead:       0 v_centroid{atomic_unit}  cell{atomic_unit}
       O -1.45778e-04  7.36061e-06 -3.91561e-05
       H  1.08460e-04  7.42888e-04  3.43440e-04
2
# CELL(abcABC):  188.97261   188.97261   188.97261    90.00000    90.00000    90.00000  Step:        2960  Bead:       0 v_centroid{atomic_unit}  cell{atomic_unit}
       O -1.50408e-04  1.11815e-05 -4.67217e-05
       H  1.61416e-04  6.90241e-04  4.60942e-04
2
# CELL(abcABC):  188.97261   188.97261   188.97261    90.00000    90.00000    90.00000  Step:        3000  Bead:       0 v_centroid{atomic_unit}  cell{atomic_unit}
       O -1.45397e-04  1.77343e-06 -5.17553e-05
       H  5.51271e-05  8.50006e-04  5.37470e-04
2
# CELL(abcABC):  188.97261   188.97261   188.97261    90.00000    90.00000    90.00000  Step:        3040  Bead:       0 v_centroid{atomic_unit}  cell{atomic_unit}
       O -1.48909e-04 -6.73819e-06 -5.91175e-05
       H  1.06853e-04  9.86679e-04  6.53826e-04
2
# CELL(abcABC):  188.97261   188.97261   188.97261    90.00000    90.00000    90.00000  Step:        3080  Bead:       0 v_centroid{atomic_unit}  cell{atomic_unit}
       O -1.52454e-04 -1.34587e-05 -7.10770e-05
       H  1.52803e-04  1.09738e-03  8.42363e-04
2
# CELL(abcABC):  188.97261   188.97261   188.97261    90.00000    90.00000    90.00000  Step:        3120  Bead:       0 v_centroid{atomic_unit}  cell{atomic_unit}
       O -1.50709e-04 -2.21346e-05 -8.61960e-05
       H  1.47278e-04  1.22645e-03  1.08515e-03
2
# CELL(abcABC):  188.97261   188.97261   188.97261    90.00000    90.00000    90.00000  Step:        3160  Bead:       0 v_centroid{atomic_unit}  cell{atomic_unit}
       O -1.53606e-04 -3.02921e-05 -9.66422e-05
       H  1.86068e-04  1.35874e-03  1.25006e-03
2
# CELL(abcABC):  188.97261   188.97261   188.97261    90.00000    90.00000    90.00000  Step:        3200  Bead:       0 v_centroid{atomic_unit}  cell{atomic_unit}
       O -1.54349e-04 -3.27580e-05 -1.08801e-04
       H  2.14623e-04  1.39136e-03  1.44518e-03
2
# CELL(abcABC):  188.97261   188.97261   188.97261    90.00000    90.00000    90.00000  Step:        3240  Bead:       0 v_centroid{atomic_unit}  cell{atomic_unit}
       O -1.50839e-04 -4.14148e-05 -1.17978e-04
       H  1.62134e-04  1.52751e-03  1.59124e-03
2
# CELL(abcABC):  188.97261   188.97261   188.97261    90.00000    90.00000    90.00000  Step:        3280  Bead:       0 v_centroid{atomic_unit}  cell{atomic_unit}
       O -1.49277e-04 -4.93416e-05 -1.21967e-04
       H  1.54518e-04  1.64663e-03  1.65673e-03
2
# CELL(abcABC):  188.97261   188.97261   188.97261    90.00000    90.00000    90.00000  Step:        3320  Bead:       0 v_centroid{atomic_unit}  cell{atomic_unit}
       O -1.53880e-04 -5.56303e-05 -1.33317e-04
       H  2.13321e-04  1.75202e-03  1.83509e-03
2
# CELL(abcABC):  188.97261   188.97261   188.97261    90.00000    90.00000    90.00000  Step:        3360  Bead:       0 v_centroid{atomic_unit}  cell{atomic_unit}
       O -1.53108e-04 -6.54414e-05 -1.42372e-04
       H  2.06182e-04  1.90576e-03  1.97948e-03
2
# CELL(abcABC):  188.97261   188.97261   188.97261    90.00000    90.00000    90.00000  Step:        3400  Bead:       0 v_centroid{atomic_unit}  cell{atomic_unit}
       O -1.51165e-04 -6.42822e-05 -1.41411e-04
       H  1.95691e-04  1.87942e-03  1.96678e-03
2
# CELL(abcABC):  188.97261   188.97261   188.97261    90.00000    90.00000    90.00000  Step:        3440  Bead:       0 v_centroid{atomic_unit}  cell{atomic_unit}
       O -1.51744e-04 -5.16034e-05 -1.25120e-04
       H  1.92671e-04  1.68293e-03  1.70665e-03
2
# CELL(abcABC):  188.97261   188.97261   188.97261    90.00000    90.00000    90.00000  Step:        3480  Bead:       0 v_centroid{atomic_unit}  cell{atomic_unit}
       O -1.49389e-04 -1.31836e-05 -7.36389e-05
       H  1.55017e-04  1.07318e-03  8.89442e-04
2
# CELL(abcABC):  188.97261   188.97261   188.97261    90.00000    90.00000    90.00000  Step:        3520  Bead:       0 v_centroid{atomic_unit}  cell{atomic_unit}
       O -1.45524e-04  3.72747e-05 -1.24429e-05
       H  7.73001e-05  2.78621e-04 -8.40083e-05
2
# CELL(abcABC):  188.97261   188.97261   188.97261    90.00000    90.00000    90.00000  Step:        3560  Bead:       0 v_centroid{atomic_unit}  cell{atomic_unit}
       O -1.38009e-04  9.03372e-05  5.24198e-05
       H -3.17952e-05 -5.67628e-04 -1.11231e-03
2
# CELL(abcABC):  188.97261   188.97261   188.97261    90.00000    90.00000    90.00000  Step:        3600  Bead:       0 v_centroid{atomic_unit}  cell{atomic_unit}
       O -1.32883e-04  1.30171e-04  1.00268e-04
       H -1.14443e-04 -1.19943e-03 -1.87198e-03
2
# CELL(abcABC):  188.97261   188.97261   188.97261    90.00000    90.00000    90.00000  Step:        3640  Bead:       0 v_centroid{atomic_unit}  cell{atomic_unit}
       O -1.29214e-04  1.44917e-04  1.22030e-04
       H -1.53378e-04 -1.44102e-03 -2.21498e-03
2
# CELL(abcABC):  188.97261   188.97261   188.97261    90.00000    90.00000    90.00000  Step:        3680  Bead:       0 v_centroid{atomic_unit}  cell{atomic_unit}
       O -1.28099e-04  1.40453e-04  1.16664e-04
       H -1.65577e-04 -1.37231e-03 -2.12912e-03
2
# CELL(abcABC):  188.97261   188.97261   188.97261    90.00000    90.00000    90.00000  Step:        3720  Bead:       0 v_centroid{atomic_unit}  cell{atomic_unit}
       O -1.31151e-04  1.29450e-04  1.00170e-04
       H -1.25570e-04 -1.19437e-03 -1.86837e-03
2
# CELL(abcABC):  188.97261   188.97261   188.97261    90.00000    90.00000    90.00000  Step:        3760  Bead:       0 v_centroid{atomic_unit}  cell{atomic_unit}
       O -1.35363e-04  1.11475e-04  8.49543e-05
       H -7.58451e-05 -9.02366e-04 -1.62900e-03
2
# CELL(abcABC):  188.97261   188.97261   188.97261    90.00000    90.00000    90.00000  Step:        3800  Bead:       0 v_centroid{atomic_unit}  cell{atomic_unit}
       O -1.33968e-04  9.88869e-05  6.51515e-05
       H -7.24401e-05 -7.12502e-04 -1.31144e-03
2
# CELL(abcABC):  188.97261   188.97261   188.97261    90.00000    90.00000    90.00000  Step:        3840  Bead:       0 v_centroid{atomic_unit}  cell{atomic_unit}
       O -1.36718e-04  8.55894e-05  5.54030e-05
       H -3.48097e-06 -5.11294e-04 -1.15351e-03
2
# CELL(abcABC):  188.97261   188.97261   188.97261    90.00000    90.00000    90.00000  Step:        3880  Bead:       0 v_centroid{atomic_unit}  cell{atomic_unit}
       O -1.36716e-04  7.50554e-05  3.92564e-05
       H  1.73719e-05 -3.52220e-04 -8.94578e-04
2
# CELL(abcABC):  188.97261   188.97261   188.97261    90.00000    90.00000    90.00000  Step:        3920  Bead:       0 v_centroid{atomic_unit}  cell{atomic_unit}
       O -1.35923e-04  6.07640e-05  2.59884e-05
       H  2.87829e-05 -1.34727e-04 -6.80944e-04
2
# CELL(abcABC):  188.97261   188.97261   188.97261    90.00000    90.00000    90.00000  Step:        3960  Bead:       0 v_centroid{atomic_unit}  cell{atomic_unit}
       O -1.35501e-04  5.16828e-05  1.50089e-05
       H  4.58397e-05  1.63957e-07 -5.03667e-04
2
# CELL(abcABC):  188.97261   188.97261   188.97261    90.00000    90.00000    90.00000  Step:        4000  Bead:       0 v_centroid{atomic_unit}  cell{atomic_unit}
       O -1.38456e-04  4.01265e-05  2.38342e-06
       H  9.04847e-05  1.84480e-04 -3.03542e-04
2
# CELL(abcABC):  188.97261   188.97261   188.97261    90.00000    90.00000    90.00000  Step:        4040  Bead:       0 v_centroid{atomic_unit}  cell{atomic_unit}
       O -1.42392e-04  3.04609e-05 -8.36183e-06
       H  1.21012e-04  3.50364e-04 -1.37008e-04
2
# CELL(abcABC):  188.97261   188.97261   188.97261    90.00000    90.00000    90.00000  Step:        4080  Bead:       0 v_centroid{atomic_unit}  cell{atomic_unit}
       O -1.46068e-04  1.88267e-05 -1.77961e-05
       H  1.91322e-04  5.30375e-04  1.42540e-05
2
# CELL(abcABC):  188.97261   188.97261   188.97261    90.00000    90.00000    90.00000  Step:        4120  Bead:       0 v_centroid{atomic_unit}  cell{atomic_unit}
       O -1.47204e-04  9.11055e-06 -3.13210e-05
       H  2.54136e-04  6.67145e-04  2.34586e-04
2
# CELL(abcABC):  188.97261   188.97261   188.97261    90.00000    90.00000    90.00000  Step:        4160  Bead:       0 v_centroid{atomic_unit}  cell{atomic_unit}
       O -1.50674e-04 -4.07550e-06 -4.25116e-05
       H  3.46292e-04  8.61999e-04  4.16894e-04
2
# CELL(abcABC):  188.97261   188.97261   188.97261    90.00000    90.00000    90.00000  Step:        4200  Bead:       0 v_centroid{atomic_unit}  cell{atomic_unit}
       O -1.54046e-04 -1.19476e-05 -5.33313e-05
       H  3.66006e-04  1.00014e-03  5.84376e-04
2
# CELL(abcABC):  188.97261   188.97261   188.97261    90.00000    90.00000    90.00000  Step:        4240  Bead:       0 v_centroid{atomic_unit}  cell{atomic_unit}
       O -1.53719e-04 -2.55793e-05 -6.31189e-05
       H  3.62250e-04  1.21596e-03  7.39918e-04
2
# CELL(abcABC):  188.97261   188.97261   188.97261    90.00000    90.00000    90.00000  Step:        4280  Bead:       0 v_centroid{atomic_unit}  cell{atomic_unit}
       O -1.58238e-04 -3.72714e-05 -7.69343e-05
       H  4.30536e-04  1.40290e-03  9.58781e-04
2
# CELL(abcABC):  188.97261   188.97261   188.97261    90.00000    90.00000    90.00000  Step:        4320  Bead:       0 v_centroid{atomic_unit}  cell{atomic_unit}
       O -1.58316e-04 -4.85290e-05 -8.50786e-05
       H  4.26960e-04  1.58347e-03  1.08745e-03
2
# CELL(abcABC):  188.97261   188.97261   188.97261    90.00000    90.00000    90.00000  Step:        4360  Bead:       0 v_centroid{atomic_unit}  cell{atomic_unit}
       O -1.62920e-04 -5.59929e-05 -9.33721e-05
       H  4.86199e-04  1.70734e-03  1.21735e-03
2
# CELL(abcABC):  188.97261   188.97261   188.97261    90.00000    90.00000    90.00000  Step:        4400  Bead:       0 v_centroid{atomic_unit}  cell{atomic_unit}
       O -1.66063e-04 -6.05270e-05 -9.77089e-05
       H  5.27752e-04  1.78256e-03  1.28514e-03
2
# CELL(abcABC):  188.97261   188.97261   188.97261    90.00000    90.00000    90.00000  Step:        4440  Bead:       0 v_centroid{atomic_unit}  cell{atomic_unit}
       O -1.62643e-04 -4.70487e-05 -8.58747e-05
       H  4.65937e-04  1.57155e-03  1.09634e-03
2
# CELL(abcABC):  188.97261   188.97261   188.97261    90.00000    90.00000    90.00000  Step:        4480  Bead:       0 v_centroid{atomic_unit}  cell{atomic_unit}
       O -1.46015e-04 -7.86265e-07 -4.40838e-05
       H  2.23275e-04  8.28917e-04  4.35663e-04
2
# CELL(abcABC):  188.97261   188.97261   188.97261    90.00000    90.00000    90.00000  Step:        4520  Bead:       0 v_centroid{atomic_unit}  cell{atomic_unit}
       O -1.33777e-04  4.57689e-05 -3.21385e-06
       H  1.25577e-05  9.63414e-05 -2.15155e-04
2