2
# CELL(abcABC):  188.97261   188.97261   188.97261    90.00000    90.00000    90.00000  Step:           0  Bead:       1 positions{angstrom}  cell{atomic_unit}
       O  3.28235e+00  1.21930e+00  2.10436e+00
       H  3.42571e+00  1.11043e+00  1.24597e+00
2
# CELL(abcABC):  188.97261   188.97261   188.97261    90.00000    90.00000    90.00000  Step:          40  Bead:       1 positions{angstrom}  cell{atomic_unit}
       O  3.21404e+00  1.81428e+00  2.58640e+00
       H -1.96993e+00 -1.07751e-01  3.23595e+00
2
# CELL(abcABC):  188.97261   188.97261   188.97261    90.00000    90.00000    90.00000  Step:          80  Bead:       1 positions{angstrom}  cell{atomic_unit}
       O  3.12407e+00  3.78570e-01  1.41924e+00
       H  1.17817e+01  3.41713e+00 -1.17160e+00
2
# CELL(abcABC):  188.97261   188.97261   188.97261    90.00000    90.00000    90.00000  Step:         120  Bead:       1 positions{angstrom}  cell{atomic_unit}
       O  3.34653e+00  2.00529e+00  2.75839e+00
       H -4.00569e+00 -1.29314e+00  2.84753e+00
2
# CELL(abcABC):  188.97261   188.97261   188.97261    90.00000    90.00000    90.00000  Step:         160  Bead:       1 positions{angstrom}  cell{atomic_unit}
       O  3.07574e+00  9.22252e-01  1.86796e+00
       H  6.79193e+00  2.52418e+00  8.26479e-01
2
# CELL(abcABC):  188.97261   188.97261   188.97261    90.00000    90.00000    90.00000  Step:         200  Bead:       1 positions{angstrom}  cell{atomic_unit}
       O  3.25057e+00  9.66350e-01  1.86768e+00
       H  5.46646e+00  1.85615e+00  9.34800e-01
2
# CELL(abcABC):  188.97261   188.97261   188.97261    90.00000    90.00000    90.00000  Step:         240  Bead:       1 positions{angstrom}  cell{atomic_unit}
       O  3.22941e+00  1.95851e+00  2.77841e+00
       H -2.71411e+00 -1.13932e+00  1.83062e+00
2
# CELL(abcABC):  188.97261   188.97261   188.97261    90.00000    90.00000    90.00000  Step:         280  Bead:       1 positions{angstrom}  cell{atomic_unit}
       O  3.04364e+00  4.45962e-01  1.34323e+00
       H  1.11291e+01  3.27046e+00  1.70411e+00
2
# CELL(abcABC):  188.97261   188.97261   188.97261    90.00000    90.00000    90.00000  Step:         320  Bead:       1 positions{angstrom}  cell{atomic_unit}
       O  3.39131e+00  1.80065e+00  2.59243e+00
       H -2.59951e+00 -6.52686e-01  1.31989e+00
2
# CELL(abcABC):  188.97261   188.97261   188.97261    90.00000    90.00000    90.00000  Step:         360  Bead:       1 positions{angstrom}  cell{atomic_unit}
       O  3.02713e+00  1.16478e+00  2.13200e+00
       H  5.04124e+00  1.51890e+00  1.11643e+00
2
# CELL(abcABC):  188.97261   188.97261   188.97261    90.00000    90.00000    90.00000  Step:         400  Bead:       1 positions{angstrom}  cell{atomic_unit}
       O  3.24379e+00  8.16617e-01  1.72045e+00
       H  6.22331e+00  2.13671e+00  8.78238e-01
2
# CELL(abcABC):  188.97261   188.97261   188.97261    90.00000    90.00000    90.00000  Step:         440  Bead:       1 positions{angstrom}  cell{atomic_unit}
       O  3.17944e+00  2.00464e+00  2.78725e+00
       H -1.49553e+00 -1.70395e+00  1.36657e+00
2
# CELL(abcABC):  188.97261   188.97261   188.97261    90.00000    90.00000    90.00000  Step:         480  Bead:       1 positions{angstrom}  cell{atomic_unit}
       O  3.20337e+00  5.24286e-01  1.71539e+00
       H  6.38205e+00  4.24556e+00 -1.57850e+00
2
# CELL(abcABC):  188.97261   188.97261   188.97261    90.00000    90.00000    90.00000  Step:         520  Bead:       1 positions{angstrom}  cell{atomic_unit}
       O  3.07721e+00  1.65934e+00  2.18890e+00
       H  4.00202e+00 -1.26942e+00  4.17189e+00
2
# CELL(abcABC):  188.97261   188.97261   188.97261    90.00000    90.00000    90.00000  Step:         560  Bead:       1 positions{angstrom}  cell{atomic_unit}
       O  3.08925e+00  1.42929e+00  2.27552e+00
       H  2.39039e+00  8.05228e-01  1.47592e+00
2
# CELL(abcABC):  188.97261   188.97261   188.97261    90.00000    90.00000    90.00000  Step:         600  Bead:       1 positions{angstrom}  cell{atomic_unit}
       O  3.49964e+00  8.17248e-01  1.70580e+00
       H  2.30512e+00  1.10503e+00  6.50394e-01
2
# CELL(abcABC):  188.97261   188.97261   188.97261    90.00000    90.00000    90.00000  Step:         640  Bead:       1 positions{angstrom}  cell{atomic_unit}
       O  2.86858e+00  1.85797e+00  2.61580e+00
       H  3.77821e+00  4.19748e-03  1.76107e+00
2
# CELL(abcABC):  188.97261   188.97261   188.97261    90.00000    90.00000    90.00000  Step:         680  Bead:       1 positions{angstrom}  cell{atomic_unit}
       O  3.25645e+00  7.80312e-01  1.73192e+00
       H  4.19863e+00  2.85516e+00  1.61679e+00
2
# CELL(abcABC):  188.97261   188.97261   188.97261    90.00000    90.00000    90.00000  Step:         720  Bead:       1 positions{angstrom}  cell{atomic_unit}
       O  3.18849e+00  1.35072e+00  2.22817e+00
       H  3.21759e+00  6.86082e-01  2.41584e-01
2
# CELL(abcABC):  188.97261   188.97261   188.97261    90.00000    90.00000    90.00000  Step:         760  Bead:       1 positions{angstrom}  cell{atomic_unit}
       O  2.98492e+00  1.51537e+00  2.43712e+00
       H  3.17014e+00  1.68784e+00  1.06251e+00
2
# CELL(abcABC):  188.97261   188.97261   188.97261    90.00000    90.00000    90.00000  Step:         800  Bead:       1 positions{angstrom}  cell{atomic_unit}
       O  3.38610e+00  8.41148e-01  1.62243e+00
       H  3.70577e+00  2.83918e-01  1.71320e+00
2
# CELL(abcABC):  188.97261   188.97261   188.97261    90.00000    90.00000    90.00000  Step:         840  Bead:       1 positions{angstrom}  cell{atomic_unit}
       O  2.92665e+00  1.69870e+00  2.51744e+00
       H  3.73369e+00  1.31380e+00  1.30772e+00
2
# CELL(abcABC):  188.97261   188.97261   188.97261    90.00000    90.00000    90.00000  Step:         880  Bead:       1 positions{angstrom}  cell{atomic_unit}
       O  3.26523e+00  9.65129e-01  1.94748e+00
       H  2.61088e+00  2.55349e+00  1.17793e+00
2
# CELL(abcABC):  188.97261   188.97261   188.97261    90.00000    90.00000    90.00000  Step:         920  Bead:       1 positions{angstrom}  cell{atomic_unit}
       O  3.18336e+00  1.21417e+00  2.00510e+00
       H  4.35961e+00  3.13547e-02  1.25237e+00
2
# CELL(abcABC):  188.97261   188.97261   188.97261    90.00000    90.00000    90.00000  Step:         960  Bead:       1 positions{angstrom}  cell{atomic_unit}
       O  2.99825e+00  1.56096e+00  2.43340e+00
       H  2.00974e+00  2.50618e+00  1.53936e+00
2
# CELL(abcABC):  188.97261   188.97261   188.97261    90.00000    90.00000    90.00000  Step:        1000  Bead:       1 positions{angstrom}  cell{atomic_unit}
       O  3.35484e+00  9.48901e-01  1.70320e+00
       H  3.47727e+00 -8.75020e-01  1.39883e+00
2
# CELL(abcABC):  188.97261   188.97261   188.97261    90.00000    90.00000    90.00000  Step:        1040  Bead:       1 positions{angstrom}  cell{atomic_unit}
       O  3.08257e+00  1.49956e+00  2.33719e+00
       H  1.83362e+00  2.31625e+00  2.30782e+00
2
# CELL(abcABC):  188.97261   188.97261   188.97261    90.00000    90.00000    90.00000  Step:        1080  Bead:       1 positions{angstrom}  cell{atomic_unit}
       O  3.02616e+00  1.26981e+00  2.02173e+00
       H  4.55490e+00  9.40079e-01  2.00296e+00
2
# CELL(abcABC):  188.97261   188.97261   188.97261    90.00000    90.00000    90.00000  Step:        1120  Bead:       1 positions{angstrom}  cell{atomic_unit}
       O  3.37415e+00  9.87711e-01  1.81218e+00
       H  2.44450e+00  1.52228e+00  2.75805e+00
2
# CELL(abcABC):  188.97261   188.97261   188.97261    90.00000    90.00000    90.00000  Step:        1160  Bead:       1 positions{angstrom}  cell{atomic_unit}
       O  2.87247e+00  1.67252e+00  2.40288e+00
       H  3.61900e+00  1.52996e+00  2.14683e+00
2
# CELL(abcABC):  188.97261   188.97261   188.97261    90.00000    90.00000    90.00000  Step:        1200  Bead:       1 positions{angstrom}  cell{atomic_unit}
       O  3.22915e+00  8.77943e-01  1.80633e+00
       H  3.79747e+00  1.56342e+00  6.56570e-01
2
# CELL(abcABC):  188.97261   188.97261   188.97261    90.00000    90.00000    90.00000  Step:        1240  Bead:       1 positions{angstrom}  cell{atomic_unit}
       O  3.13988e+00  1.41324e+00  2.29046e+00
       H  2.62967e+00  1.38099e+00  1.48798e+00
2
# CELL(abcABC):  188.97261   188.97261   188.97261    90.00000    90.00000    90.00000  Step:        1280  Bead:       1 positions{angstrom}  cell{atomic_unit}
       O  2.96496e+00  1.34045e+00  2.11096e+00
       H  4.04365e+00  1.93956e+00  2.24805e+00
2
# CELL(abcABC):  188.97261   188.97261   188.97261    90.00000    90.00000    90.00000  Step:        1320  Bead:       1 positions{angstrom}  cell{atomic_unit}
       O  3.27383e+00  9.74069e-01  1.73061e+00
       H  3.37747e+00  8.23674e-01  3.17271e+00
2
# CELL(abcABC):  188.97261   188.97261   188.97261    90.00000    90.00000    90.00000  Step:        1360  Bead:       1 positions{angstrom}  cell{atomic_unit}
       O  2.98750e+00  1.66134e+00  2.44160e+00
       H  2.52279e+00  1.35431e+00  1.71581e+00
2
# CELL(abcABC):  188.97261   188.97261   188.97261    90.00000    90.00000    90.00000  Step:        1400  Bead:       1 positions{angstrom}  cell{atomic_unit}
       O  3.17791e+00  1.10621e+00  1.75645e+00
       H  3.15522e+00 -8.76021e-02  2.68101e+00
2
# CELL(abcABC):  188.97261   188.97261   188.97261    90.00000    90.00000    90.00000  Step:        1440  Bead:       1 positions{angstrom}  cell{atomic_unit}
       O  3.19665e+00  1.26917e+00  2.07446e+00
       H  2.35076e+00  1.86253e+00  2.88822e+00
2
# CELL(abcABC):  188.97261   188.97261   188.97261    90.00000    90.00000    90.00000  Step:        1480  Bead:       1 positions{angstrom}  cell{atomic_unit}
       O  2.98608e+00  1.52952e+00  2.18638e+00
       H  3.02354e+00  4.86838e-01  2.78026e+00
2
# CELL(abcABC):  188.97261   188.97261   188.97261    90.00000    90.00000    90.00000  Step:        1520  Bead:       1 positions{angstrom}  cell{atomic_unit}
       O  3.29913e+00  9.38550e-01  1.74562e+00
       H  2.47651e+00  1.38694e+00  1.80667e+00
2
# CELL(abcABC):  188.97261   188.97261   188.97261    90.00000    90.00000    90.00000  Step:        1560  Bead:       1 positions{angstrom}  cell{atomic_unit}
       O  3.01063e+00  1.64534e+00  2.35015e+00
       H  3.11034e+00  2.52160e-01  2.70673e+00
2
# CELL(abcABC):  188.97261   188.97261   188.97261    90.00000    90.00000    90.00000  Step:        1600  Bead:       1 positions{angstrom}  cell{atomic_unit}
       O  3.10601e+00  1.08521e+00  1.87948e+00
       H  3.33432e+00  1.89125e+00  2.25486e+00
2
# CELL(abcABC):  188.97261   188.97261   188.97261    90.00000    90.00000    90.00000  Step:        1640  Bead:       1 positions{angstrom}  cell{atomic_unit}
       O  3.24683e+00  1.25146e+00  1.98411e+00
       H  2.10139e+00  8.04998e-01  2.44221e+00
2
# CELL(abcABC):  188.97261   188.97261   188.97261    90.00000    90.00000    90.00000  Step:        1680  Bead:       1 positions{angstrom}  cell{atomic_unit}
       O  2.92906e+00  1.47105e+00  2.25282e+00
       H  3.48004e+00  2.39709e+00  2.96479e+00
2
# CELL(abcABC):  188.97261   188.97261   188.97261    90.00000    90.00000    90.00000  Step:        1720  Bead:       1 positions{angstrom}  cell{atomic_unit}
       O  3.27124e+00  9.50990e-01  1.69203e+00
       H  2.53819e+00  1.07928e+00  2.90286e+00
2
# CELL(abcABC):  188.97261   188.97261   188.97261    90.00000    90.00000    90.00000  Step:        1760  Bead:       1 positions{angstrom}  cell{atomic_unit}
       O  3.03443e+00  1.54712e+00  2.25584e+00
       H  3.10780e+00  9.48612e-01  2.80251e+00
2
# CELL(abcABC):  188.97261   188.97261   188.97261    90.00000    90.00000    90.00000  Step:        1800  Bead:       1 positions{angstrom}  cell{atomic_unit}
       O  3.06997e+00  1.26560e+00  1.93463e+00
       H  2.42278e+00  1.51940e+00  2.70791e+00
2
# CELL(abcABC):  188.97261   188.97261   188.97261    90.00000    90.00000    90.00000  Step:        1840  Bead:       1 positions{angstrom}  cell{atomic_unit}
       O  3.24774e+00  1.06980e+00  1.84054e+00
       H  2.78124e+00  1.20128e+00  3.34409e+00
2
# CELL(abcABC):  188.97261   188.97261   188.97261    90.00000    90.00000    90.00000  Step:        1880  Bead:       1 positions{angstrom}  cell{atomic_unit}
       O  2.94549e+00  1.66802e+00  2.26140e+00
       H  2.99159e+00  8.49410e-01  2.83022e+00
2
# CELL(abcABC):  188.97261   188.97261   188.97261    90.00000    90.00000    90.00000  Step:        1920  Bead:       1 positions{angstrom}  cell{atomic_unit}
       O  3.16643e+00  9.78008e-01  1.73375e+00
       H  2.85003e+00  1.49511e+00  3.07031e+00
2
# CELL(abcABC):  188.97261   188.97261   188.97261    90.00000    90.00000    90.00000  Step:        1960  Bead:       1 positions{angstrom}  cell{atomic_unit}
       O  3.10640e+00  1.45863e+00  2.12436e+00
       H  2.89285e+00  6.23147e-01  2.98766e+00
2
# CELL(abcABC):  188.97261   188.97261   188.97261    90.00000    90.00000    90.00000  Step:        2000  Bead:       1 positions{angstrom}  cell{atomic_unit}
       O  2.99649e+00  1.34641e+00  2.03907e+00
       H  2.73965e+00  2.20394e+00  2.87197e+00
2
# CELL(abcABC):  188.97261   188.97261   188.97261    90.00000    90.00000    90.00000  Step:        2040  Bead:       1 positions{angstrom}  cell{atomic_unit}
       O  3.20179e+00  1.05243e+00  1.82745e+00
       H  2.99070e+00  9.65941e-01  2.84774e+00
2
# CELL(abcABC):  188.97261   188.97261   188.97261    90.00000    90.00000    90.00000  Step:        2080  Bead:       1 positions{angstrom}  cell{atomic_unit}
       O  2.94756e+00  1.59697e+00  2.24453e+00
       H  3.31417e+00  1.43689e+00  3.11263e+00
2
# CELL(abcABC):  188.97261   188.97261   188.97261    90.00000    90.00000    90.00000  Step:        2120  Bead:       1 positions{angstrom}  cell{atomic_unit}
       O  3.12351e+00  1.05752e+00  1.85092e+00
       H  2.44981e+00  1.78587e+00  2.63457e+00
2
# CELL(abcABC):  188.97261   188.97261   188.97261    90.00000    90.00000    90.00000  Step:        2160  Bead:       1 positions{angstrom}  cell{atomic_unit}
       O  3.11688e+00  1.28805e+00  2.04604e+00
       H  3.05799e+00  1.26397e+00  2.83752e+00
2
# CELL(abcABC):  188.97261   188.97261   188.97261    90.00000    90.00000    90.00000  Step:        2200  Bead:       1 positions{angstrom}  cell{atomic_unit}
       O  2.97519e+00  1.50591e+00  2.08762e+00
       H  2.79929e+00  7.53637e-01  2.88313e+00
2
# CELL(abcABC):  188.97261   188.97261   188.97261    90.00000    90.00000    90.00000  Step:        2240  Bead:       1 positions{angstrom}  cell{atomic_unit}
       O  3.16710e+00  1.07049e+00  1.87071e+00
       H  2.94222e+00  9.43465e-01  2.60094e+00
2
# CELL(abcABC):  188.97261   188.97261   188.97261    90.00000    90.00000    90.00000  Step:        2280  Bead:       1 positions{angstrom}  cell{atomic_unit}
       O  3.01555e+00  1.46920e+00  2.15034e+00
       H  2.65006e+00  1.88578e+00  3.03347e+00
2
# CELL(abcABC):  188.97261   188.97261   188.97261    90.00000    90.00000    90.00000  Step:        2320  Bead:       1 positions{angstrom}  cell{atomic_unit}
       O  3.08573e+00  1.19765e+00  1.89962e+00
       H  2.66994e+00  1.87514e+00  2.61078e+00
2
# CELL(abcABC):  188.97261   188.97261   188.97261    90.00000    90.00000    90.00000  Step:        2360  Bead:       1 positions{angstrom}  cell{atomic_unit}
       O  3.07289e+00  1.18261e+00  2.05941e+00
       H  3.66017e+00  1.52906e+00  2.59033e+00
2
# CELL(abcABC):  188.97261   188.97261   188.97261    90.00000    90.00000    90.00000  Step:        2400  Bead:       1 positions{angstrom}  cell{atomic_unit}
       O  2.94361e+00  1.45210e+00  2.08509e+00
       H  3.20819e+00  2.18820e+00  2.68737e+00
2
# CELL(abcABC):  188.97261   188.97261   188.97261    90.00000    90.00000    90.00000  Step:        2440  Bead:       1 positions{angstrom}  cell{atomic_unit}
       O  3.10526e+00  1.08884e+00  1.91071e+00
       H  3.47545e+00  1.77631e+00  2.33820e+00
2
# CELL(abcABC):  188.97261   188.97261   188.97261    90.00000    90.00000    90.00000  Step:        2480  Bead:       1 positions{angstrom}  cell{atomic_unit}
       O  2.96262e+00  1.41160e+00  2.09514e+00
       H  3.47350e+00  9.61837e-01  2.89623e+00
2
# CELL(abcABC):  188.97261   188.97261   188.97261    90.00000    90.00000    90.00000  Step:        2520  Bead:       1 positions{angstrom}  cell{atomic_unit}
       O  3.00160e+00  1.26681e+00  1.96255e+00
       H  3.47982e+00  2.02979e+00  2.73301e+00
2
# CELL(abcABC):  188.97261   188.97261   188.97261    90.00000    90.00000    90.00000  Step:        2560  Bead:       1 positions{angstrom}  cell{atomic_unit}
       O  3.07559e+00  1.14975e+00  2.03746e+00
       H  3.32490e+00  1.91405e+00  1.64696e+00
2
# CELL(abcABC):  188.97261   188.97261   188.97261    90.00000    90.00000    90.00000  Step:        2600  Bead:       1 positions{angstrom}  cell{atomic_unit}
       O  2.90172e+00  1.41039e+00  2.12320e+00
       H  3.54276e+00  2.35866e+00  2.58826e+00
2
# CELL(abcABC):  188.97261   188.97261   188.97261    90.00000    90.00000    90.00000  Step:        2640  Bead:       1 positions{angstrom}  cell{atomic_unit}
       O  3.07736e+00  1.13787e+00  1.87917e+00
       H  3.25359e+00  1.64559e+00  2.80835e+00
2
# CELL(abcABC):  188.97261   188.97261   188.97261    90.00000    90.00000    90.00000  Step:        2680  Bead:       1 positions{angstrom}  cell{atomic_unit}
       O  2.98427e+00  1.34989e+00  2.10806e+00
       H  3.64758e+00  1.87532e+00  2.54047e+00
2
# CELL(abcABC):  188.97261   188.97261   188.97261    90.00000    90.00000    90.00000  Step:        2720  Bead:       1 positions{angstrom}  cell{atomic_unit}
       O  2.97250e+00  1.30552e+00  2.01318e+00
       H  2.87703e+00  2.36029e+00  2.08888e+00
2
# CELL(abcABC):  188.97261   188.97261   188.97261    90.00000    90.00000    90.00000  Step:        2760  Bead:       1 positions{angstrom}  cell{atomic_unit}
       O  3.04998e+00  1.15769e+00  1.96037e+00
       H  3.73700e+00  1.72850e+00  2.46986e+00
2
# CELL(abcABC):  188.97261   188.97261   188.97261    90.00000    90.00000    90.00000  Step:        2800  Bead:       1 positions{angstrom}  cell{atomic_unit}
       O  2.91242e+00  1.40247e+00  2.14990e+00
       H  3.41072e+00  2.21738e+00  2.37835e+00
2
# CELL(abcABC):  188.97261   188.97261   188.97261    90.00000    90.00000    90.00000  Step:        2840  Bead:       1 positions{angstrom}  cell{atomic_unit}
       O  3.03978e+00  1.19548e+00  1.90015e+00
       H  3.52242e+00  1.82812e+00  2.23934e+00
2
# CELL(abcABC):  188.97261   188.97261   188.97261    90.00000    90.00000    90.00000  Step:        2880  Bead:       1 positions{angstrom}  cell{atomic_unit}
       O  2.98145e+00  1.29764e+00  2.12833e+00
       H  3.67412e+00  1.85300e+00  2.41307e+00
2
# CELL(abcABC):  188.97261   188.97261   188.97261    90.00000    90.00000    90.00000  Step:        2920  Bead:       1 positions{angstrom}  cell{atomic_unit}
       O  2.93946e+00  1.31470e+00  2.03691e+00
       H  3.01423e+00  2.32532e+00  2.12368e+00
2
# CELL(abcABC):  188.97261   188.97261   188.97261    90.00000    90.00000    90.00000  Step:        2960  Bead:       1 positions{angstrom}  cell{atomic_unit}
       O  3.06429e+00  1.15881e+00  1.95386e+00
       H  3.40665e+00  1.95857e+00  2.17434e+00
2
# CELL(abcABC):  188.97261   188.97261   188.97261    90.00000    90.00000    90.00000  Step:        3000  Bead:       1 positions{angstrom}  cell{atomic_unit}
       O  2.90138e+00  1.39938e+00  2.17478e+00
       H  3.52999e+00  1.99616e+00  2.22404e+00
2
# CELL(abcABC):  188.97261   188.97261   188.97261    90.00000    90.00000    90.00000  Step:        3040  Bead:       1 positions{angstrom}  cell{atomic_unit}
       O  2.98820e+00  1.18691e+00  1.92495e+00
       H  3.64022e+00  2.10088e+00  2.04864e+00
2
# CELL(abcABC):  188.97261   188.97261   188.97261    90.00000    90.00000    90.00000  Step:        3080  Bead:       1 positions{angstrom}  cell{atomic_unit}
       O  3.00162e+00  1.29448e+00  2.07012e+00
       H  3.19219e+00  2.13913e+00  2.45892e+00
2
# CELL(abcABC):  188.97261   188.97261   188.97261    90.00000    90.00000    90.00000  Step:        3120  Bead:       1 positions{angstrom}  cell{atomic_unit}
       O  2.91518e+00  1.31297e+00  2.04747e+00
       H  3.17911e+00  2.18168e+00  2.14361e+00
2
# CELL(abcABC):  188.97261   188.97261   188.97261    90.00000    90.00000    90.00000  Step:        3160  Bead:       1 positions{angstrom}  cell{atomic_unit}
       O  3.00679e+00  1.20725e+00  1.98534e+00
       H  3.68059e+00  1.77589e+00  2.17090e+00
2
# CELL(abcABC):  188.97261   188.97261   188.97261    90.00000    90.00000    90.00000  Step:        3200  Bead:       1 positions{angstrom}  cell{atomic_unit}
       O  2.89483e+00  1.37306e+00  2.12102e+00
       H  3.34688e+00  2.35115e+00  2.37186e+00
2
# CELL(abcABC):  188.97261   188.97261   188.97261    90.00000    90.00000    90.00000  Step:        3240  Bead:       1 positions{angstrom}  cell{atomic_unit}
       O  2.99319e+00  1.21204e+00  1.96009e+00
       H  3.31664e+00  2.13204e+00  2.10469e+00
2
# CELL(abcABC):  188.97261   188.97261   188.97261    90.00000    90.00000    90.00000  Step:        3280  Bead:       1 positions{angstrom}  cell{atomic_unit}
       O  2.98262e+00  1.28953e+00  2.04640e+00
       H  3.14827e+00  2.09725e+00  2.38024e+00
2
# CELL(abcABC):  188.97261   188.97261   188.97261    90.00000    90.00000    90.00000  Step:        3320  Bead:       1 positions{angstrom}  cell{atomic_unit}
       O  2.93504e+00  1.33830e+00  2.07590e+00
       H  3.07314e+00  2.12302e+00  2.46559e+00
2
# CELL(abcABC):  188.97261   188.97261   188.97261    90.00000    90.00000    90.00000  Step:        3360  Bead:       1 positions{angstrom}  cell{atomic_unit}
       O  3.00750e+00  1.17973e+00  1.92460e+00
       H  3.20616e+00  2.06376e+00  2.35538e+00
2
# CELL(abcABC):  188.97261   188.97261   188.97261    90.00000    90.00000    90.00000  Step:        3400  Bead:       1 positions{angstrom}  cell{atomic_unit}
       O  2.94439e+00  1.44407e+00  2.07883e+00
       H  2.66535e+00  1.54944e+00  3.00527e+00
2
# CELL(abcABC):  188.97261   188.97261   188.97261    90.00000    90.00000    90.00000  Step:        3440  Bead:       1 positions{angstrom}  cell{atomic_unit}
       O  2.98901e+00  1.23256e+00  1.97782e+00
       H  3.24402e+00  2.02213e+00  2.63091e+00
2
# CELL(abcABC):  188.97261   188.97261   188.97261    90.00000    90.00000    90.00000  Step:        3480  Bead:       1 positions{angstrom}  cell{atomic_unit}
       O  2.95244e+00  1.29306e+00  1.96139e+00
       H  3.02551e+00  1.80530e+00  2.87438e+00
2
# CELL(abcABC):  188.97261   188.97261   188.97261    90.00000    90.00000    90.00000  Step:        3520  Bead:       1 positions{angstrom}  cell{atomic_unit}
       O  2.94359e+00  1.36155e+00  2.05255e+00
       H  2.75422e+00  2.02006e+00  2.92250e+00
2
# CELL(abcABC):  188.97261   188.97261   188.97261    90.00000    90.00000    90.00000  Step:        3560  Bead:       1 positions{angstrom}  cell{atomic_unit}
       O  2.97384e+00  1.21860e+00  1.93423e+00
       H  3.08218e+00  1.90156e+00  2.63694e+00
2
# CELL(abcABC):  188.97261   188.97261   188.97261    90.00000    90.00000    90.00000  Step:        3600  Bead:       1 positions{angstrom}  cell{atomic_unit}
       O  2.94744e+00  1.37091e+00  2.01058e+00
       H  2.92229e+00  2.06622e+00  2.90537e+00
2
# CELL(abcABC):  188.97261   188.97261   188.97261    90.00000    90.00000    90.00000  Step:        3640  Bead:       1 positions{angstrom}  cell{atomic_unit}
       O  2.96054e+00  1.26145e+00  2.02456e+00
       H  2.75058e+00  2.08184e+00  2.47264e+00
2
# CELL(abcABC):  188.97261   188.97261   188.97261    90.00000    90.00000    90.00000  Step:        3680  Bead:       1 positions{angstrom}  cell{atomic_unit}
       O  2.93748e+00  1.30659e+00  1.95967e+00
       H  3.00003e+00  1.84269e+00  2.95266e+00
2
# CELL(abcABC):  188.97261   188.97261   188.97261    90.00000    90.00000    90.00000  Step:        3720  Bead:       1 positions{angstrom}  cell{atomic_unit}
       O  2.98735e+00  1.34728e+00  2.04855e+00
       H  2.61063e+00  2.26007e+00  2.32254e+00
2
# CELL(abcABC):  188.97261   188.97261   188.97261    90.00000    90.00000    90.00000  Step:        3760  Bead:       1 positions{angstrom}  cell{atomic_unit}
       O  2.94074e+00  1.21042e+00  1.96555e+00
       H  3.06035e+00  2.09606e+00  2.42715e+00
2
# CELL(abcABC):  188.97261   188.97261   188.97261    90.00000    90.00000    90.00000  Step:        3800  Bead:       1 positions{angstrom}  cell{atomic_unit}
       O  2.90991e+00  1.36858e+00  2.02092e+00
       H  3.27268e+00  1.81199e+00  2.69768e+00
2
# CELL(abcABC):  188.97261   188.97261   188.97261    90.00000    90.00000    90.00000  Step:        3840  Bead:       1 positions{angstrom}  cell{atomic_unit}
       O  2.89195e+00  1.27346e+00  2.03638e+00
       H  3.68875e+00  1.88138e+00  2.39530e+00
2
# CELL(abcABC):  188.97261   188.97261   188.97261    90.00000    90.00000    90.00000  Step:        3880  Bead:       1 positions{angstrom}  cell{atomic_unit}
       O  2.89633e+00  1.33821e+00  1.96091e+00
       H  3.57399e+00  1.59292e+00  2.38678e+00
2
# CELL(abcABC):  188.97261   188.97261   188.97261    90.00000    90.00000    90.00000  Step:        3920  Bead:       1 positions{angstrom}  cell{atomic_unit}
       O  2.90307e+00  1.33605e+00  2.08527e+00
       H  3.34340e+00  2.06488e+00  2.61418e+00
2
# CELL(abcABC):  188.97261   188.97261   188.97261    90.00000    90.00000    90.00000  Step:        3960  Bead:       1 positions{angstrom}  cell{atomic_unit}
       O  2.88192e+00  1.25770e+00  1.96788e+00
       H  3.55604e+00  1.74167e+00  2.16429e+00
2
# CELL(abcABC):  188.97261   188.97261   188.97261    90.00000    90.00000    90.00000  Step:        4000  Bead:       1 positions{angstrom}  cell{atomic_unit}
       O  2.88577e+00  1.38822e+00  2.03281e+00
       H  3.75443e+00  1.60956e+00  2.25704e+00
2
# CELL(abcABC):  188.97261   188.97261   188.97261    90.00000    90.00000    90.00000  Step:        4040  Bead:       1 positions{angstrom}  cell{atomic_unit}
       O  2.90562e+00  1.25761e+00  2.07208e+00
       H  3.14289e+00  2.30651e+00  2.14961e+00
2
# CELL(abcABC):  188.97261   188.97261   188.97261    90.00000    90.00000    90.00000  Step:        4080  Bead:       1 positions{angstrom}  cell{atomic_unit}
       O  2.85668e+00  1.31693e+00  1.93053e+00
       H  3.68467e+00  1.70035e+00  2.47653e+00
2
# CELL(abcABC):  188.97261   188.97261   188.97261    90.00000    90.00000    90.00000  Step:        4120  Bead:       1 positions{angstrom}  cell{atomic_unit}
       O  2.91167e+00  1.45023e+00  2.03812e+00
       H  3.32970e+00  1.25384e+00  2.72814e+00
2
# CELL(abcABC):  188.97261   188.97261   188.97261    90.00000    90.00000    90.00000  Step:        4160  Bead:       1 positions{angstrom}  cell{atomic_unit}
       O  2.85528e+00  1.22310e+00  2.01671e+00
       H  3.64590e+00  1.79276e+00  2.54528e+00
2
# CELL(abcABC):  188.97261   188.97261   188.97261    90.00000    90.00000    90.00000  Step:        4200  Bead:       1 positions{angstrom}  cell{atomic_unit}
       O  2.89377e+00  1.39525e+00  1.98035e+00
       H  3.60175e+00  1.86309e+00  2.16917e+00
2
# CELL(abcABC):  188.97261   188.97261   188.97261    90.00000    90.00000    90.00000  Step:        4240  Bead:       1 positions{angstrom}  cell{atomic_unit}
       O  2.84849e+00  1.32194e+00  2.03264e+00
       H  3.38543e+00  1.98288e+00  2.65791e+00
2
# CELL(abcABC):  188.97261   188.97261   188.97261    90.00000    90.00000    90.00000  Step:        4280  Bead:       1 positions{angstrom}  cell{atomic_unit}
       O  2.95042e+00  1.22751e+00  1.99533e+00
       H  3.00550e+00  2.17487e+00  2.06133e+00
2
# CELL(abcABC):  188.97261   188.97261   188.97261    90.00000    90.00000    90.00000  Step:        4320  Bead:       1 positions{angstrom}  cell{atomic_unit}
       O  2.87363e+00  1.39637e+00  2.04345e+00
       H  3.06563e+00  2.26258e+00  2.23298e+00
2
# CELL(abcABC):  188.97261   188.97261   188.97261    90.00000    90.00000    90.00000  Step:        4360  Bead:       1 positions{angstrom}  cell{atomic_unit}
       O  2.90849e+00  1.20788e+00  2.02083e+00
       H  2.83165e+00  2.06624e+00  2.52667e+00
2
# CELL(abcABC):  188.97261   188.97261   188.97261    90.00000    90.00000    90.00000  Step:        4400  Bead:       1 positions{angstrom}  cell{atomic_unit}
       O  2.95236e+00  1.35718e+00  1.96160e+00
       H  3.00377e+00  2.06637e+00  2.66737e+00
2
# CELL(abcABC):  188.97261   188.97261   188.97261    90.00000    90.00000    90.00000  Step:        4440  Bead:       1 positions{angstrom}  cell{atomic_unit}
       O  2.82939e+00  1.34037e+00  2.05128e+00
       H  3.45971e+00  1.91021e+00  2.52533e+00
2
# CELL(abcABC):  188.97261   188.97261   188.97261    90.00000    90.00000    90.00000  Step:        4480  Bead:       1 positions{angstrom}  cell{atomic_unit}
       O  2.92019e+00  1.22805e+00  1.98179e+00
       H  2.88714e+00  2.24142e+00  2.45171e+00
2
# CELL(abcABC):  188.97261   188.97261   188.97261    90.00000    90.00000    90.00000  Step:        4520  Bead:       1 positions{angstrom}  cell{atomic_unit}
       O  2.89201e+00  1.41232e+00  2.01230e+00
       H  3.05713e+00  1.73789e+00  2.71880e+00
2
# CELL(abcABC):  188.97261   188.97261   188.97261    90.00000    90.00000    90.00000  Step:        4560  Bead:       1 positions{angstrom}  cell{atomic_unit}
       O  2.83706e+00  1.27059e+00  2.00323e+00
       H  3.19281e+00  2.24715e+00  2.73253e+00
2
# CELL(abcABC):  188.97261   188.97261   188.97261    90.00000    90.00000    90.00000  Step:        4600  Bead:       1 positions{angstrom}  cell{atomic_unit}
       O  2.89108e+00  1.30745e+00  1.98002e+00
       H  3.19463e+00  2.21884e+00  2.31627e+00
2