2
# CELL(abcABC):  188.97261   188.97261   188.97261    90.00000    90.00000    90.00000  Step:           0  Bead:       0 x_centroid{angstrom}  cell{atomic_unit}
       O  3.21303e+00  1.23787e+00  2.12970e+00
       H  3.45421e+00  1.13953e+00  1.21050e+00
2
# CELL(abcABC):  188.97261   188.97261   188.97261    90.00000    90.00000    90.00000  Step:          40  Bead:       0 x_centroid{angstrom}  cell{atomic_unit}
       O  3.20950e+00  1.23912e+00  2.12969e+00
       H  3.45495e+00  1.14123e+00  1.20377e+00
2
# CELL(abcABC):  188.97261   188.97261   188.97261    90.00000    90.00000    90.00000  Step:          80  Bead:       0 x_centroid{angstrom}  cell{atomic_unit}
       O  3.20596e+00  1.24045e+00  2.12975e+00
       H  3.45552e+00  1.14170e+00  1.19584e+00
2
# CELL(abcABC):  188.97261   188.97261   188.97261    90.00000    90.00000    90.00000  Step:         120  Bead:       0 x_centroid{angstrom}  cell{atomic_unit}
       O  3.20239e+00  1.24183e+00  2.12975e+00
       H  3.45563e+00  1.14193e+00  1.18867e+00
2
# CELL(abcABC):  188.97261   188.97261   188.97261    90.00000    90.00000    90.00000  Step:         160  Bead:       0 x_centroid{angstrom}  cell{atomic_unit}
       O  3.19873e+00  1.24325e+00  2.12968e+00
       H  3.45575e+00  1.14203e+00  1.18246e+00
2
# CELL(abcABC):  188.97261   188.97261   188.97261    90.00000    90.00000    90.00000  Step:         200  Bead:       0 x_centroid{angstrom}  cell{atomic_unit}
       O  3.19506e+00  1.24472e+00  2.12965e+00
       H  3.45654e+00  1.14103e+00  1.17569e+00
2
# CELL(abcABC):  188.97261   188.97261   188.97261    90.00000    90.00000    90.00000  Step:         240  Bead:       0 x_centroid{angstrom}  cell{atomic_unit}
       O  3.19150e+00  1.24616e+00  2.12943e+00
       H  3.45698e+00  1.14005e+00  1.17207e+00
2
# CELL(abcABC):  188.97261   188.97261   188.97261    90.00000    90.00000    90.00000  Step:         280  Bead:       0 x_centroid{angstrom}  cell{atomic_unit}
       O  3.18803e+00  1.24748e+00  2.12933e+00
       H  3.45676e+00  1.14068e+00  1.16672e+00
2
# CELL(abcABC):  188.97261   188.97261   188.97261    90.00000    90.00000    90.00000  Step:         320  Bead:       0 x_centroid{angstrom}  cell{atomic_unit}
       O  3.18462e+00  1.24869e+00  2.12923e+00
       H  3.45579e+00  1.14300e+00  1.16135e+00
2
# CELL(abcABC):  188.97261   188.97261   188.97261    90.00000    90.00000    90.00000  Step:         360  Bead:       0 x_centroid{angstrom}  cell{atomic_unit}
       O  3.18119e+00  1.24987e+00  2.12896e+00
       H  3.45461e+00  1.14587e+00  1.15854e+00
2
# CELL(abcABC):  188.97261   188.97261   188.97261    90.00000    90.00000    90.00000  Step:         400  Bead:       0 x_centroid{angstrom}  cell{atomic_unit}
       O  3.17792e+00  1.25162e+00  2.12842e+00
       H  3.45183e+00  1.13941e+00  1.16027e+00
2
# CELL(abcABC):  188.97261   188.97261   188.97261    90.00000    90.00000    90.00000  Step:         440  Bead:       0 x_centroid{angstrom}  cell{atomic_unit}
       O  3.17456e+00  1.25350e+00  2.12788e+00
       H  3.45076e+00  1.13081e+00  1.16193e+00
2
# CELL(abcABC):  188.97261   188.97261   188.97261    90.00000    90.00000    90.00000  Step:         480  Bead:       0 x_centroid{angstrom}  cell{atomic_unit}
       O  3.17162e+00  1.25497e+00  2.12705e+00
       H  3.44310e+00  1.12859e+00  1.16840e+00
2
# CELL(abcABC):  188.97261   188.97261   188.97261    90.00000    90.00000    90.00000  Step:         520  Bead:       0 x_centroid{angstrom}  cell{atomic_unit}
       O  3.16873e+00  1.25615e+00  2.12592e+00
       H  3.43504e+00  1.13092e+00  1.17946e+00
2
# CELL(abcABC):  188.97261   188.97261   188.97261    90.00000    90.00000    90.00000  Step:         560  Bead:       0 x_centroid{angstrom}  cell{atomic_unit}
       O  3.16535e+00  1.25709e+00  2.12460e+00
       H  3.43522e+00  1.13677e+00  1.19368e+00
2
# CELL(abcABC):  188.97261   188.97261   188.97261    90.00000    90.00000    90.00000  Step:         600  Bead:       0 x_centroid{angstrom}  cell{atomic_unit}
       O  3.16250e+00  1.25810e+00  2.12317e+00
       H  3.42785e+00  1.14128e+00  1.20981e+00
2
# CELL(abcABC):  188.97261   188.97261   188.97261    90.00000    90.00000    90.00000  Step:         640  Bead:       0 x_centroid{angstrom}  cell{atomic_unit}
       O  3.15968e+00  1.25914e+00  2.12175e+00
       H  3.42101e+00  1.14489e+00  1.22578e+00
2
# CELL(abcABC):  188.97261   188.97261   188.97261    90.00000    90.00000    90.00000  Step:         680  Bead:       0 x_centroid{angstrom}  cell{atomic_unit}
       O  3.15688e+00  1.26024e+00  2.12016e+00
       H  3.41517e+00  1.14706e+00  1.24466e+00
2
# CELL(abcABC):  188.97261   188.97261   188.97261    90.00000    90.00000    90.00000  Step:         720  Bead:       0 x_centroid{angstrom}  cell{atomic_unit}
       O  3.15430e+00  1.26161e+00  2.11824e+00
       H  3.40573e+00  1.14491e+00  1.26887e+00
2
# CELL(abcABC):  188.97261   188.97261   188.97261    90.00000    90.00000    90.00000  Step:         760  Bead:       0 x_centroid{angstrom}  cell{atomic_unit}
       O  3.15185e+00  1.26313e+00  2.11574e+00
       H  3.39390e+00  1.14066e+00  1.30206e+00
2
# CELL(abcABC):  188.97261   188.97261   188.97261    90.00000    90.00000    90.00000  Step:         800  Bead:       0 x_centroid{angstrom}  cell{atomic_unit}
       O  3.14973e+00  1.26454e+00  2.11293e+00
       H  3.37696e+00  1.13784e+00  1.34039e+00
2
# CELL(abcABC):  188.97261   188.97261   188.97261    90.00000    90.00000    90.00000  Step:         840  Bead:       0 x_centroid{angstrom}  cell{atomic_unit}
       O  3.14793e+00  1.26611e+00  2.10935e+00
       H  3.35516e+00  1.13268e+00  1.39085e+00
2
# CELL(abcABC):  188.97261   188.97261   188.97261    90.00000    90.00000    90.00000  Step:         880  Bead:       0 x_centroid{angstrom}  cell{atomic_unit}
       O  3.14636e+00  1.26762e+00  2.10543e+00
       H  3.32944e+00  1.12844e+00  1.44658e+00
2
# CELL(abcABC):  188.97261   188.97261   188.97261    90.00000    90.00000    90.00000  Step:         920  Bead:       0 x_centroid{angstrom}  cell{atomic_unit}
       O  3.14473e+00  1.26903e+00  2.10111e+00
       H  3.30432e+00  1.12591e+00  1.50870e+00
2
# CELL(abcABC):  188.97261   188.97261   188.97261    90.00000    90.00000    90.00000  Step:         960  Bead:       0 x_centroid{angstrom}  cell{atomic_unit}
       O  3.14312e+00  1.27054e+00  2.09671e+00
       H  3.27849e+00  1.12197e+00  1.57210e+00
2
# CELL(abcABC):  188.97261   188.97261   188.97261    90.00000    90.00000    90.00000  Step:        1000  Bead:       0 x_centroid{angstrom}  cell{atomic_unit}
       O  3.14161e+00  1.27175e+00  2.09172e+00
       H  3.25092e+00  1.12277e+00  1.64483e+00
2
# CELL(abcABC):  188.97261   188.97261   188.97261    90.00000    90.00000    90.00000  Step:        1040  Bead:       0 x_centroid{angstrom}  cell{atomic_unit}
       O  3.14050e+00  1.27234e+00  2.08615e+00
       H  3.21712e+00  1.13349e+00  1.72669e+00
2
# CELL(abcABC):  188.97261   188.97261   188.97261    90.00000    90.00000    90.00000  Step:        1080  Bead:       0 x_centroid{angstrom}  cell{atomic_unit}
       O  3.13935e+00  1.27311e+00  2.08063e+00
       H  3.18386e+00  1.14137e+00  1.80797e+00
2
# CELL(abcABC):  188.97261   188.97261   188.97261    90.00000    90.00000    90.00000  Step:        1120  Bead:       0 x_centroid{angstrom}  cell{atomic_unit}
       O  3.13830e+00  1.27370e+00  2.07491e+00
       H  3.14877e+00  1.15211e+00  1.89216e+00
2
# CELL(abcABC):  188.97261   188.97261   188.97261    90.00000    90.00000    90.00000  Step:        1160  Bead:       0 x_centroid{angstrom}  cell{atomic_unit}
       O  3.13702e+00  1.27444e+00  2.06915e+00
       H  3.11760e+00  1.16047e+00  1.97717e+00
2
# CELL(abcABC):  188.97261   188.97261   188.97261    90.00000    90.00000    90.00000  Step:        1200  Bead:       0 x_centroid{angstrom}  cell{atomic_unit}
       O  3.13523e+00  1.27514e+00  2.06331e+00
       H  3.09435e+00  1.16957e+00  2.06323e+00
2
# CELL(abcABC):  188.97261   188.97261   188.97261    90.00000    90.00000    90.00000  Step:        1240  Bead:       0 x_centroid{angstrom}  cell{atomic_unit}
       O  3.13326e+00  1.27626e+00  2.05779e+00
       H  3.07419e+00  1.17180e+00  2.14446e+00
2
# CELL(abcABC):  188.97261   188.97261   188.97261    90.00000    90.00000    90.00000  Step:        1280  Bead:       0 x_centroid{angstrom}  cell{atomic_unit}
       O  3.13115e+00  1.27749e+00  2.05288e+00
       H  3.05630e+00  1.17233e+00  2.21586e+00
2
# CELL(abcABC):  188.97261   188.97261   188.97261    90.00000    90.00000    90.00000  Step:        1320  Bead:       0 x_centroid{angstrom}  cell{atomic_unit}
       O  3.12929e+00  1.27887e+00  2.04867e+00
       H  3.03449e+00  1.17043e+00  2.27625e+00
2
# CELL(abcABC):  188.97261   188.97261   188.97261    90.00000    90.00000    90.00000  Step:        1360  Bead:       0 x_centroid{angstrom}  cell{atomic_unit}
       O  3.12734e+00  1.28019e+00  2.04441e+00
       H  3.01372e+00  1.16962e+00  2.33728e+00
2
# CELL(abcABC):  188.97261   188.97261   188.97261    90.00000    90.00000    90.00000  Step:        1400  Bead:       0 x_centroid{angstrom}  cell{atomic_unit}
       O  3.12504e+00  1.28120e+00  2.04063e+00
       H  2.99827e+00  1.17393e+00  2.39080e+00
2
# CELL(abcABC):  188.97261   188.97261   188.97261    90.00000    90.00000    90.00000  Step:        1440  Bead:       0 x_centroid{angstrom}  cell{atomic_unit}
       O  3.12243e+00  1.28153e+00  2.03695e+00
       H  2.98771e+00  1.18886e+00  2.44261e+00
2
# CELL(abcABC):  188.97261   188.97261   188.97261    90.00000    90.00000    90.00000  Step:        1480  Bead:       0 x_centroid{angstrom}  cell{atomic_unit}
       O  3.11936e+00  1.28178e+00  2.03304e+00
       H  2.98468e+00  1.20510e+00  2.49814e+00
2
# CELL(abcABC):  188.97261   188.97261   188.97261    90.00000    90.00000    90.00000  Step:        1520  Bead:       0 x_centroid{angstrom}  cell{atomic_unit}
       O  3.11642e+00  1.28228e+00  2.02920e+00
       H  2.97939e+00  1.21740e+00  2.55257e+00
2
# CELL(abcABC):  188.97261   188.97261   188.97261    90.00000    90.00000    90.00000  Step:        1560  Bead:       0 x_centroid{angstrom}  cell{atomic_unit}
       O  3.11341e+00  1.28307e+00  2.02545e+00
       H  2.97517e+00  1.22524e+00  2.60560e+00
2
# CELL(abcABC):  188.97261   188.97261   188.97261    90.00000    90.00000    90.00000  Step:        1600  Bead:       0 x_centroid{angstrom}  cell{atomic_unit}
       O  3.11093e+00  1.28385e+00  2.02117e+00
       H  2.96228e+00  1.23321e+00  2.66697e+00
2
# CELL(abcABC):  188.97261   188.97261   188.97261    90.00000    90.00000    90.00000  Step:        1640  Bead:       0 x_centroid{angstrom}  cell{atomic_unit}
       O  3.10843e+00  1.28466e+00  2.01659e+00
       H  2.94960e+00  1.24073e+00  2.73307e+00
2
# CELL(abcABC):  188.97261   188.97261   188.97261    90.00000    90.00000    90.00000  Step:        1680  Bead:       0 x_centroid{angstrom}  cell{atomic_unit}
       O  3.10579e+00  1.28551e+00  2.01179e+00
       H  2.93911e+00  1.24754e+00  2.80257e+00
2
# CELL(abcABC):  188.97261   188.97261   188.97261    90.00000    90.00000    90.00000  Step:        1720  Bead:       0 x_centroid{angstrom}  cell{atomic_unit}
       O  3.10353e+00  1.28631e+00  2.00703e+00
       H  2.92251e+00  1.25542e+00  2.87158e+00
2
# CELL(abcABC):  188.97261   188.97261   188.97261    90.00000    90.00000    90.00000  Step:        1760  Bead:       0 x_centroid{angstrom}  cell{atomic_unit}
       O  3.10120e+00  1.28726e+00  2.00292e+00
       H  2.90721e+00  1.26066e+00  2.93017e+00
2
# CELL(abcABC):  188.97261   188.97261   188.97261    90.00000    90.00000    90.00000  Step:        1800  Bead:       0 x_centroid{angstrom}  cell{atomic_unit}
       O  3.09866e+00  1.28821e+00  1.99979e+00
       H  2.89496e+00  1.26616e+00  2.97315e+00
2
# CELL(abcABC):  188.97261   188.97261   188.97261    90.00000    90.00000    90.00000  Step:        1840  Bead:       0 x_centroid{angstrom}  cell{atomic_unit}
       O  3.09588e+00  1.28928e+00  1.99784e+00
       H  2.88633e+00  1.26968e+00  2.99750e+00
2
# CELL(abcABC):  188.97261   188.97261   188.97261    90.00000    90.00000    90.00000  Step:        1880  Bead:       0 x_centroid{angstrom}  cell{atomic_unit}
       O  3.09298e+00  1.29025e+00  1.99700e+00
       H  2.88051e+00  1.27455e+00  3.00436e+00
2
# CELL(abcABC):  188.97261   188.97261   188.97261    90.00000    90.00000    90.00000  Step:        1920  Bead:       0 x_centroid{angstrom}  cell{atomic_unit}
       O  3.09002e+00  1.29120e+00  1.99702e+00
       H  2.87751e+00  1.27880e+00  2.99772e+00
2
# CELL(abcABC):  188.97261   188.97261   188.97261    90.00000    90.00000    90.00000  Step:        1960  Bead:       0 x_centroid{angstrom}  cell{atomic_unit}
       O  3.08684e+00  1.29228e+00  1.99775e+00
       H  2.87905e+00  1.28086e+00  2.97997e+00
2
# CELL(abcABC):  188.97261   188.97261   188.97261    90.00000    90.00000    90.00000  Step:        2000  Bead:       0 x_centroid{angstrom}  cell{atomic_unit}
       O  3.08352e+00  1.29333e+00  1.99934e+00
       H  2.88295e+00  1.28308e+00  2.94850e+00
2
# CELL(abcABC):  188.97261   188.97261   188.97261    90.00000    90.00000    90.00000  Step:        2040  Bead:       0 x_centroid{angstrom}  cell{atomic_unit}
       O  3.07999e+00  1.29431e+00  2.00166e+00
       H  2.89003e+00  1.28668e+00  2.90549e+00
2
# CELL(abcABC):  188.97261   188.97261   188.97261    90.00000    90.00000    90.00000  Step:        2080  Bead:       0 x_centroid{angstrom}  cell{atomic_unit}
       O  3.07646e+00  1.29511e+00  2.00442e+00
       H  2.89717e+00  1.29309e+00  2.85555e+00
2
# CELL(abcABC):  188.97261   188.97261   188.97261    90.00000    90.00000    90.00000  Step:        2120  Bead:       0 x_centroid{angstrom}  cell{atomic_unit}
       O  3.07274e+00  1.29583e+00  2.00709e+00
       H  2.90714e+00  1.30085e+00  2.80693e+00
2
# CELL(abcABC):  188.97261   188.97261   188.97261    90.00000    90.00000    90.00000  Step:        2160  Bead:       0 x_centroid{angstrom}  cell{atomic_unit}
       O  3.06912e+00  1.29650e+00  2.00952e+00
       H  2.91532e+00  1.30928e+00  2.76221e+00
2
# CELL(abcABC):  188.97261   188.97261   188.97261    90.00000    90.00000    90.00000  Step:        2200  Bead:       0 x_centroid{angstrom}  cell{atomic_unit}
       O  3.06565e+00  1.29727e+00  2.01206e+00
       H  2.92142e+00  1.31626e+00  2.71566e+00
2
# CELL(abcABC):  188.97261   188.97261   188.97261    90.00000    90.00000    90.00000  Step:        2240  Bead:       0 x_centroid{angstrom}  cell{atomic_unit}
       O  3.06226e+00  1.29807e+00  2.01458e+00
       H  2.92641e+00  1.32254e+00  2.66965e+00
2
# CELL(abcABC):  188.97261   188.97261   188.97261    90.00000    90.00000    90.00000  Step:        2280  Bead:       0 x_centroid{angstrom}  cell{atomic_unit}
       O  3.05885e+00  1.29877e+00  2.01680e+00
       H  2.93180e+00  1.33048e+00  2.62811e+00
2
# CELL(abcABC):  188.97261   188.97261   188.97261    90.00000    90.00000    90.00000  Step:        2320  Bead:       0 x_centroid{angstrom}  cell{atomic_unit}
       O  3.05550e+00  1.29931e+00  2.01866e+00
       H  2.93618e+00  1.34084e+00  2.59258e+00
2
# CELL(abcABC):  188.97261   188.97261   188.97261    90.00000    90.00000    90.00000  Step:        2360  Bead:       0 x_centroid{angstrom}  cell{atomic_unit}
       O  3.05224e+00  1.29997e+00  2.02022e+00
       H  2.93875e+00  1.34954e+00  2.56147e+00
2
# CELL(abcABC):  188.97261   188.97261   188.97261    90.00000    90.00000    90.00000  Step:        2400  Bead:       0 x_centroid{angstrom}  cell{atomic_unit}
       O  3.04898e+00  1.30057e+00  2.02148e+00
       H  2.94104e+00  1.35923e+00  2.53527e+00
2
# CELL(abcABC):  188.97261   188.97261   188.97261    90.00000    90.00000    90.00000  Step:        2440  Bead:       0 x_centroid{angstrom}  cell{atomic_unit}
       O  3.04569e+00  1.30124e+00  2.02258e+00
       H  2.94402e+00  1.36781e+00  2.51169e+00
2
# CELL(abcABC):  188.97261   188.97261   188.97261    90.00000    90.00000    90.00000  Step:        2480  Bead:       0 x_centroid{angstrom}  cell{atomic_unit}
       O  3.04247e+00  1.30188e+00  2.02356e+00
       H  2.94617e+00  1.37685e+00  2.48990e+00
2
# CELL(abcABC):  188.97261   188.97261   188.97261    90.00000    90.00000    90.00000  Step:        2520  Bead:       0 x_centroid{angstrom}  cell{atomic_unit}
       O  3.03931e+00  1.30254e+00  2.02426e+00
       H  2.94735e+00  1.38541e+00  2.47261e+00
2
# CELL(abcABC):  188.97261   188.97261   188.97261    90.00000    90.00000    90.00000  Step:        2560  Bead:       0 x_centroid{angstrom}  cell{atomic_unit}
       O  3.03608e+00  1.30322e+00  2.02475e+00
       H  2.94918e+00  1.39398e+00  2.45866e+00
2
# CELL(abcABC):  188.97261   188.97261   188.97261    90.00000    90.00000    90.00000  Step:        2600  Bead:       0 x_centroid{angstrom}  cell{atomic_unit}
       O  3.03268e+00  1.30375e+00  2.02503e+00
       H  2.95352e+00  1.40485e+00  2.44798e+00
2
# CELL(abcABC):  188.97261   188.97261   188.97261    90.00000    90.00000    90.00000  Step:        2640  Bead:       0 x_centroid{angstrom}  cell{atomic_unit}
       O  3.02923e+00  1.30411e+00  2.02505e+00
       H  2.95864e+00  1.41840e+00  2.44131e+00
2
# CELL(abcABC):  188.97261   188.97261   188.97261    90.00000    90.00000    90.00000  Step:        2680  Bead:       0 x_centroid{angstrom}  cell{atomic_unit}
       O  3.02603e+00  1.30433e+00  2.02516e+00
       H  2.96025e+00  1.43408e+00  2.43344e+00
2
# CELL(abcABC):  188.97261   188.97261   188.97261    90.00000    90.00000    90.00000  Step:        2720  Bead:       0 x_centroid{angstrom}  cell{atomic_unit}
       O  3.02295e+00  1.30463e+00  2.02512e+00
       H  2.96067e+00  1.44829e+00  2.42784e+00
2
# CELL(abcABC):  188.97261   188.97261   188.97261    90.00000    90.00000    90.00000  Step:        2760  Bead:       0 x_centroid{angstrom}  cell{atomic_unit}
       O  3.01979e+00  1.30493e+00  2.02496e+00
       H  2.96110e+00  1.46284e+00  2.42420e+00
2
# CELL(abcABC):  188.97261   188.97261   188.97261    90.00000    90.00000    90.00000  Step:        2800  Bead:       0 x_centroid{angstrom}  cell{atomic_unit}
       O  3.01648e+00  1.30518e+00  2.02467e+00
       H  2.96332e+00  1.47851e+00  2.42249e+00
2
# CELL(abcABC):  188.97261   188.97261   188.97261    90.00000    90.00000    90.00000  Step:        2840  Bead:       0 x_centroid{angstrom}  cell{atomic_unit}
       O  3.01322e+00  1.30543e+00  2.02419e+00
       H  2.96584e+00  1.49381e+00  2.42379e+00
2
# CELL(abcABC):  188.97261   188.97261   188.97261    90.00000    90.00000    90.00000  Step:        2880  Bead:       0 x_centroid{angstrom}  cell{atomic_unit}
       O  3.00999e+00  1.30554e+00  2.02350e+00
       H  2.96896e+00  1.51079e+00  2.42877e+00
2
# CELL(abcABC):  188.97261   188.97261   188.97261    90.00000    90.00000    90.00000  Step:        2920  Bead:       0 x_centroid{angstrom}  cell{atomic_unit}
       O  3.00678e+00  1.30562e+00  2.02272e+00
       H  2.97156e+00  1.52836e+00  2.43501e+00
2
# CELL(abcABC):  188.97261   188.97261   188.97261    90.00000    90.00000    90.00000  Step:        2960  Bead:       0 x_centroid{angstrom}  cell{atomic_unit}
       O  3.00358e+00  1.30581e+00  2.02176e+00
       H  2.97378e+00  1.54428e+00  2.44412e+00
2
# CELL(abcABC):  188.97261   188.97261   188.97261    90.00000    90.00000    90.00000  Step:        3000  Bead:       0 x_centroid{angstrom}  cell{atomic_unit}
       O  3.00041e+00  1.30594e+00  2.02068e+00
       H  2.97538e+00  1.56131e+00  2.45515e+00
2
# CELL(abcABC):  188.97261   188.97261   188.97261    90.00000    90.00000    90.00000  Step:        3040  Bead:       0 x_centroid{angstrom}  cell{atomic_unit}
       O  2.99714e+00  1.30590e+00  2.01948e+00
       H  2.97777e+00  1.58108e+00  2.46792e+00
2
# CELL(abcABC):  188.97261   188.97261   188.97261    90.00000    90.00000    90.00000  Step:        3080  Bead:       0 x_centroid{angstrom}  cell{atomic_unit}
       O  2.99380e+00  1.30570e+00  2.01807e+00
       H  2.98121e+00  1.60369e+00  2.48405e+00
2
# CELL(abcABC):  188.97261   188.97261   188.97261    90.00000    90.00000    90.00000  Step:        3120  Bead:       0 x_centroid{angstrom}  cell{atomic_unit}
       O  2.99048e+00  1.30532e+00  2.01635e+00
       H  2.98444e+00  1.62891e+00  2.50515e+00
2
# CELL(abcABC):  188.97261   188.97261   188.97261    90.00000    90.00000    90.00000  Step:        3160  Bead:       0 x_centroid{angstrom}  cell{atomic_unit}
       O  2.98718e+00  1.30479e+00  2.01436e+00
       H  2.98763e+00  1.65657e+00  2.53058e+00
2
# CELL(abcABC):  188.97261   188.97261   188.97261    90.00000    90.00000    90.00000  Step:        3200  Bead:       0 x_centroid{angstrom}  cell{atomic_unit}
       O  2.98386e+00  1.30414e+00  2.01214e+00
       H  2.99151e+00  1.68592e+00  2.55959e+00
2
# CELL(abcABC):  188.97261   188.97261   188.97261    90.00000    90.00000    90.00000  Step:        3240  Bead:       0 x_centroid{angstrom}  cell{atomic_unit}
       O  2.98054e+00  1.30331e+00  2.00963e+00
       H  2.99539e+00  1.71806e+00  2.59330e+00
2
# CELL(abcABC):  188.97261   188.97261   188.97261    90.00000    90.00000    90.00000  Step:        3280  Bead:       0 x_centroid{angstrom}  cell{atomic_unit}
       O  2.97728e+00  1.30232e+00  2.00701e+00
       H  2.99844e+00  1.75278e+00  2.62878e+00
2
# CELL(abcABC):  188.97261   188.97261   188.97261    90.00000    90.00000    90.00000  Step:        3320  Bead:       0 x_centroid{angstrom}  cell{atomic_unit}
       O  2.97395e+00  1.30117e+00  2.00418e+00
       H  3.00257e+00  1.79004e+00  2.66746e+00
2
# CELL(abcABC):  188.97261   188.97261   188.97261    90.00000    90.00000    90.00000  Step:        3360  Bead:       0 x_centroid{angstrom}  cell{atomic_unit}
       O  2.97060e+00  1.29988e+00  2.00120e+00
       H  3.00707e+00  1.82955e+00  2.70864e+00
2
# CELL(abcABC):  188.97261   188.97261   188.97261    90.00000    90.00000    90.00000  Step:        3400  Bead:       0 x_centroid{angstrom}  cell{atomic_unit}
       O  2.96729e+00  1.29846e+00  1.99811e+00
       H  3.01139e+00  1.87083e+00  2.75165e+00
2
# CELL(abcABC):  188.97261   188.97261   188.97261    90.00000    90.00000    90.00000  Step:        3440  Bead:       0 x_centroid{angstrom}  cell{atomic_unit}
       O  2.96398e+00  1.29716e+00  1.99513e+00
       H  3.01554e+00  1.91040e+00  2.79285e+00
2
# CELL(abcABC):  188.97261   188.97261   188.97261    90.00000    90.00000    90.00000  Step:        3480  Bead:       0 x_centroid{angstrom}  cell{atomic_unit}
       O  2.96068e+00  1.29642e+00  1.99292e+00
       H  3.01944e+00  1.94094e+00  2.82182e+00
2
# CELL(abcABC):  188.97261   188.97261   188.97261    90.00000    90.00000    90.00000  Step:        3520  Bead:       0 x_centroid{angstrom}  cell{atomic_unit}
       O  2.95744e+00  1.29665e+00  1.99195e+00
       H  3.02200e+00  1.95634e+00  2.83104e+00
2
# CELL(abcABC):  188.97261   188.97261   188.97261    90.00000    90.00000    90.00000  Step:        3560  Bead:       0 x_centroid{angstrom}  cell{atomic_unit}
       O  2.95433e+00  1.29805e+00  1.99239e+00
       H  3.02255e+00  1.95311e+00  2.81788e+00
2
# CELL(abcABC):  188.97261   188.97261   188.97261    90.00000    90.00000    90.00000  Step:        3600  Bead:       0 x_centroid{angstrom}  cell{atomic_unit}
       O  2.95137e+00  1.30050e+00  1.99410e+00
       H  3.02099e+00  1.93320e+00  2.78464e+00
2
# CELL(abcABC):  188.97261   188.97261   188.97261    90.00000    90.00000    90.00000  Step:        3640  Bead:       0 x_centroid{angstrom}  cell{atomic_unit}
       O  2.94849e+00  1.30355e+00  1.99654e+00
       H  3.01811e+00  1.90379e+00  2.73974e+00
2
# CELL(abcABC):  188.97261   188.97261   188.97261    90.00000    90.00000    90.00000  Step:        3680  Bead:       0 x_centroid{angstrom}  cell{atomic_unit}
       O  2.94568e+00  1.30669e+00  1.99917e+00
       H  3.01471e+00  1.87261e+00  2.69199e+00
2
# CELL(abcABC):  188.97261   188.97261   188.97261    90.00000    90.00000    90.00000  Step:        3720  Bead:       0 x_centroid{angstrom}  cell{atomic_unit}
       O  2.94285e+00  1.30964e+00  2.00155e+00
       H  3.01146e+00  1.84459e+00  2.64811e+00
2
# CELL(abcABC):  188.97261   188.97261   188.97261    90.00000    90.00000    90.00000  Step:        3760  Bead:       0 x_centroid{angstrom}  cell{atomic_unit}
       O  2.93992e+00  1.31229e+00  2.00358e+00
       H  3.00936e+00  1.82153e+00  2.60984e+00
2
# CELL(abcABC):  188.97261   188.97261   188.97261    90.00000    90.00000    90.00000  Step:        3800  Bead:       0 x_centroid{angstrom}  cell{atomic_unit}
       O  2.93697e+00  1.31459e+00  2.00521e+00
       H  3.00767e+00  1.80383e+00  2.57781e+00
2
# CELL(abcABC):  188.97261   188.97261   188.97261    90.00000    90.00000    90.00000  Step:        3840  Bead:       0 x_centroid{angstrom}  cell{atomic_unit}
       O  2.93399e+00  1.31660e+00  2.00652e+00
       H  3.00701e+00  1.79069e+00  2.55093e+00
2
# CELL(abcABC):  188.97261   188.97261   188.97261    90.00000    90.00000    90.00000  Step:        3880  Bead:       0 x_centroid{angstrom}  cell{atomic_unit}
       O  2.93097e+00  1.31834e+00  2.00752e+00
       H  3.00742e+00  1.78157e+00  2.52902e+00
2
# CELL(abcABC):  188.97261   188.97261   188.97261    90.00000    90.00000    90.00000  Step:        3920  Bead:       0 x_centroid{angstrom}  cell{atomic_unit}
       O  2.92797e+00  1.31981e+00  2.00821e+00
       H  3.00836e+00  1.77638e+00  2.51223e+00
2
# CELL(abcABC):  188.97261   188.97261   188.97261    90.00000    90.00000    90.00000  Step:        3960  Bead:       0 x_centroid{angstrom}  cell{atomic_unit}
       O  2.92495e+00  1.32106e+00  2.00865e+00
       H  3.00955e+00  1.77487e+00  2.49939e+00
2
# CELL(abcABC):  188.97261   188.97261   188.97261    90.00000    90.00000    90.00000  Step:        4000  Bead:       0 x_centroid{angstrom}  cell{atomic_unit}
       O  2.92195e+00  1.32208e+00  2.00884e+00
       H  3.01114e+00  1.77659e+00  2.49057e+00
2
# CELL(abcABC):  188.97261   188.97261   188.97261    90.00000    90.00000    90.00000  Step:        4040  Bead:       0 x_centroid{angstrom}  cell{atomic_unit}
       O  2.91891e+00  1.32282e+00  2.00877e+00
       H  3.01359e+00  1.78270e+00  2.48594e+00
2
# CELL(abcABC):  188.97261   188.97261   188.97261    90.00000    90.00000    90.00000  Step:        4080  Bead:       0 x_centroid{angstrom}  cell{atomic_unit}
       O  2.91574e+00  1.32336e+00  2.00847e+00
       H  3.01691e+00  1.79244e+00  2.48471e+00
2
# CELL(abcABC):  188.97261   188.97261   188.97261    90.00000    90.00000    90.00000  Step:        4120  Bead:       0 x_centroid{angstrom}  cell{atomic_unit}
       O  2.91253e+00  1.32365e+00  2.00797e+00
       H  3.02146e+00  1.80593e+00  2.48678e+00
2
# CELL(abcABC):  188.97261   188.97261   188.97261    90.00000    90.00000    90.00000  Step:        4160  Bead:       0 x_centroid{angstrom}  cell{atomic_unit}
       O  2.90930e+00  1.32372e+00  2.00719e+00
       H  3.02736e+00  1.82237e+00  2.49352e+00
2
# CELL(abcABC):  188.97261   188.97261   188.97261    90.00000    90.00000    90.00000  Step:        4200  Bead:       0 x_centroid{angstrom}  cell{atomic_unit}
       O  2.90598e+00  1.32353e+00  2.00610e+00
       H  3.03512e+00  1.84304e+00  2.50505e+00
2
# CELL(abcABC):  188.97261   188.97261   188.97261    90.00000    90.00000    90.00000  Step:        4240  Bead:       0 x_centroid{angstrom}  cell{atomic_unit}
       O  2.90257e+00  1.32307e+00  2.00479e+00
       H  3.04352e+00  1.86806e+00  2.52020e+00
2
# CELL(abcABC):  188.97261   188.97261   188.97261    90.00000    90.00000    90.00000  Step:        4280  Bead:       0 x_centroid{angstrom}  cell{atomic_unit}
       O  2.89917e+00  1.32239e+00  2.00325e+00
       H  3.05212e+00  1.89663e+00  2.53885e+00
2
# CELL(abcABC):  188.97261   188.97261   188.97261    90.00000    90.00000    90.00000  Step:        4320  Bead:       0 x_centroid{angstrom}  cell{atomic_unit}
       O  2.89574e+00  1.32143e+00  2.00149e+00
       H  3.06114e+00  1.92950e+00  2.56107e+00
2
# CELL(abcABC):  188.97261   188.97261   188.97261    90.00000    90.00000    90.00000  Step:        4360  Bead:       0 x_centroid{angstrom}  cell{atomic_unit}
       O  2.89221e+00  1.32025e+00  1.99948e+00
       H  3.07125e+00  1.96621e+00  2.58712e+00
2
# CELL(abcABC):  188.97261   188.97261   188.97261    90.00000    90.00000    90.00000  Step:        4400  Bead:       0 x_centroid{angstrom}  cell{atomic_unit}
       O  2.88863e+00  1.31894e+00  1.99737e+00
       H  3.08228e+00  2.00487e+00  2.61493e+00
2
# CELL(abcABC):  188.97261   188.97261   188.97261    90.00000    90.00000    90.00000  Step:        4440  Bead:       0 x_centroid{angstrom}  cell{atomic_unit}
       O  2.88500e+00  1.31765e+00  1.99526e+00
       H  3.09364e+00  2.04332e+00  2.64254e+00
2
# CELL(abcABC):  188.97261   188.97261   188.97261    90.00000    90.00000    90.00000  Step:        4480  Bead:       0 x_centroid{angstrom}  cell{atomic_unit}
       O  2.88162e+00  1.31713e+00  1.99383e+00
       H  3.10125e+00  2.06951e+00  2.65939e+00
2
# CELL(abcABC):  188.97261   188.97261   188.97261    90.00000    90.00000    90.00000  Step:        4520  Bead:       0 x_centroid{angstrom}  cell{atomic_unit}
       O  2.87857e+00  1.31762e+00  1.99331e+00
       H  3.10384e+00  2.07966e+00  2.66188e+00
2
# CELL(abcABC):  188.97261   188.97261   188.97261    90.00000    90.00000    90.00000  Step:        4560  Bead:       0 x_centroid{angstrom}  cell{atomic_unit}
       O  2.87578e+00  1.31912e+00  1.99365e+00
       H  3.10217e+00  2.07378e+00  2.65073e+00
2
# CELL(abcABC):  188.97261   188.97261   188.97261    90.00000    90.00000    90.00000  Step:        4600  Bead:       0 x_centroid{angstrom}  cell{atomic_unit}
       O  2.87325e+00  1.32156e+00  1.99482e+00