2
# CELL(abcABC):  188.97261   188.97261   188.97261    90.00000    90.00000    90.00000  Step:           0  Bead:       1 velocities{atomic_unit}  cell{atomic_unit}
       O -6.23926e-04  9.55788e-04 -2.10321e-05
       H  1.70807e-03 -5.99422e-04  4.78034e-05
2
# CELL(abcABC):  188.97261   188.97261   188.97261    90.00000    90.00000    90.00000  Step:          40  Bead:       1 velocities{atomic_unit}  cell{atomic_unit}
       O  1.45585e-04 -5.52489e-04  8.74727e-05
       H -9.35249e-04  7.53829e-04 -7.35677e-04
2
# CELL(abcABC):  188.97261   188.97261   188.97261    90.00000    90.00000    90.00000  Step:          80  Bead:       1 velocities{atomic_unit}  cell{atomic_unit}
       O -1.45539e-04  1.09001e-04 -7.58970e-05
       H -4.01846e-04 -4.57662e-04  9.54069e-05
2
# CELL(abcABC):  188.97261   188.97261   188.97261    90.00000    90.00000    90.00000  Step:         120  Bead:       1 velocities{atomic_unit}  cell{atomic_unit}
       O -4.48266e-04  5.84818e-04 -3.93745e-06
       H  1.69875e-03 -1.79481e-05 -5.30595e-04
2
# CELL(abcABC):  188.97261   188.97261   188.97261    90.00000    90.00000    90.00000  Step:         160  Bead:       1 velocities{atomic_unit}  cell{atomic_unit}
       O  2.35747e-04 -7.53053e-04  9.18162e-06
       H -2.29251e-03  7.64153e-04 -2.55461e-04
2
# CELL(abcABC):  188.97261   188.97261   188.97261    90.00000    90.00000    90.00000  Step:         200  Bead:       1 velocities{atomic_unit}  cell{atomic_unit}
       O -4.62694e-04  8.27109e-04  1.33022e-05
       H  1.73569e-03 -1.19570e-03 -1.38572e-04
2
# CELL(abcABC):  188.97261   188.97261   188.97261    90.00000    90.00000    90.00000  Step:         240  Bead:       1 velocities{atomic_unit}  cell{atomic_unit}
       O -1.28690e-04 -3.76215e-04 -1.56560e-05
       H -4.12214e-04  6.10458e-04 -3.40512e-04
2
# CELL(abcABC):  188.97261   188.97261   188.97261    90.00000    90.00000    90.00000  Step:         280  Bead:       1 velocities{atomic_unit}  cell{atomic_unit}
       O  4.48487e-05 -3.90447e-05  1.60232e-05
       H -1.03138e-03  2.78363e-04  3.94165e-05
2
# CELL(abcABC):  188.97261   188.97261   188.97261    90.00000    90.00000    90.00000  Step:         320  Bead:       1 velocities{atomic_unit}  cell{atomic_unit}
       O -4.74530e-04  6.62429e-04 -3.11164e-05
       H  1.71847e-03 -9.69599e-04 -5.56252e-04
2
# CELL(abcABC):  188.97261   188.97261   188.97261    90.00000    90.00000    90.00000  Step:         360  Bead:       1 velocities{atomic_unit}  cell{atomic_unit}
       O  1.10257e-04 -7.62039e-04 -2.66328e-05
       H -1.77275e-03  1.83895e-03  3.30574e-04
2
# CELL(abcABC):  188.97261   188.97261   188.97261    90.00000    90.00000    90.00000  Step:         400  Bead:       1 velocities{atomic_unit}  cell{atomic_unit}
       O -2.55093e-04  7.18136e-04 -3.76009e-05
       H  6.38308e-04 -1.78838e-03  2.19416e-04
2
# CELL(abcABC):  188.97261   188.97261   188.97261    90.00000    90.00000    90.00000  Step:         440  Bead:       1 velocities{atomic_unit}  cell{atomic_unit}
       O -2.53302e-04 -7.22348e-05 -3.97932e-06
       H  4.88284e-04 -1.87311e-04 -3.84303e-04
2
# CELL(abcABC):  188.97261   188.97261   188.97261    90.00000    90.00000    90.00000  Step:         480  Bead:       1 velocities{atomic_unit}  cell{atomic_unit}
       O  7.69288e-05 -2.78236e-04 -5.11434e-05
       H -1.86863e-03  9.68881e-04  8.72637e-04
2
# CELL(abcABC):  188.97261   188.97261   188.97261    90.00000    90.00000    90.00000  Step:         520  Bead:       1 velocities{atomic_unit}  cell{atomic_unit}
       O -3.38798e-04  7.49638e-04 -3.99508e-05
       H  1.18454e-03 -1.71019e-03  1.09558e-04
2
# CELL(abcABC):  188.97261   188.97261   188.97261    90.00000    90.00000    90.00000  Step:         560  Bead:       1 velocities{atomic_unit}  cell{atomic_unit}
       O -2.93168e-05 -7.37969e-04 -1.01047e-04
       H -4.63014e-04  2.36835e-03  9.40820e-04
2
# CELL(abcABC):  188.97261   188.97261   188.97261    90.00000    90.00000    90.00000  Step:         600  Bead:       1 velocities{atomic_unit}  cell{atomic_unit}
       O -1.06716e-04  5.18949e-04 -1.36814e-04
       H -1.12911e-03 -1.29969e-03  9.25657e-04
2
# CELL(abcABC):  188.97261   188.97261   188.97261    90.00000    90.00000    90.00000  Step:         640  Bead:       1 velocities{atomic_unit}  cell{atomic_unit}
       O -2.69222e-04  7.48061e-05 -2.77968e-06
       H  8.24049e-04  2.90247e-04  3.35202e-04
2
# CELL(abcABC):  188.97261   188.97261   188.97261    90.00000    90.00000    90.00000  Step:         680  Bead:       1 velocities{atomic_unit}  cell{atomic_unit}
       O  7.41444e-05 -4.18076e-04 -1.35768e-04
       H -7.19797e-04  5.57470e-04  1.60008e-03
2
# CELL(abcABC):  188.97261   188.97261   188.97261    90.00000    90.00000    90.00000  Step:         720  Bead:       1 velocities{atomic_unit}  cell{atomic_unit}
       O -1.94105e-04  8.41649e-04 -5.00781e-05
       H -5.18084e-04 -1.51374e-03  5.16151e-04
2
# CELL(abcABC):  188.97261   188.97261   188.97261    90.00000    90.00000    90.00000  Step:         760  Bead:       1 velocities{atomic_unit}  cell{atomic_unit}
       O -9.85323e-05 -6.61336e-04 -1.25724e-04
       H  2.86551e-04  1.20582e-03  2.71339e-03
2
# CELL(abcABC):  188.97261   188.97261   188.97261    90.00000    90.00000    90.00000  Step:         800  Bead:       1 velocities{atomic_unit}  cell{atomic_unit}
       O  9.37372e-06  3.81082e-04 -1.57571e-04
       H -2.36829e-03 -1.40865e-03  1.09618e-03
2
# CELL(abcABC):  188.97261   188.97261   188.97261    90.00000    90.00000    90.00000  Step:         840  Bead:       1 velocities{atomic_unit}  cell{atomic_unit}
       O -1.37621e-04  1.80138e-04 -4.40808e-05
       H -9.02860e-04  2.87317e-03  2.34006e-03
2
# CELL(abcABC):  188.97261   188.97261   188.97261    90.00000    90.00000    90.00000  Step:         880  Bead:       1 velocities{atomic_unit}  cell{atomic_unit}
       O  7.73036e-05 -6.10945e-04 -3.50976e-04
       H -1.78015e-03 -2.18701e-04  3.10257e-03
2
# CELL(abcABC):  188.97261   188.97261   188.97261    90.00000    90.00000    90.00000  Step:         920  Bead:       1 velocities{atomic_unit}  cell{atomic_unit}
       O -2.07605e-04  9.21097e-04 -7.32959e-05
       H -2.57806e-04 -2.30799e-03  1.96103e-03
2
# CELL(abcABC):  188.97261   188.97261   188.97261    90.00000    90.00000    90.00000  Step:         960  Bead:       1 velocities{atomic_unit}  cell{atomic_unit}
       O -6.34718e-06 -5.57356e-04 -2.83639e-04
       H -2.31285e-03  3.08642e-03  4.72877e-03
2
# CELL(abcABC):  188.97261   188.97261   188.97261    90.00000    90.00000    90.00000  Step:        1000  Bead:       1 velocities{atomic_unit}  cell{atomic_unit}
       O -1.21547e-04  2.02681e-04 -2.00391e-04
       H  1.23751e-04 -2.31139e-03  1.75590e-03
2
# CELL(abcABC):  188.97261   188.97261   188.97261    90.00000    90.00000    90.00000  Step:        1040  Bead:       1 velocities{atomic_unit}  cell{atomic_unit}
       O -9.72606e-05  3.93326e-04 -2.59808e-04
       H -1.52665e-03  1.37653e-03  5.68236e-03
2
# CELL(abcABC):  188.97261   188.97261   188.97261    90.00000    90.00000    90.00000  Step:        1080  Bead:       1 velocities{atomic_unit}  cell{atomic_unit}
       O  4.96593e-05 -7.11448e-04 -3.13899e-04
       H -2.87393e-03  1.39620e-03  2.91282e-03
2
# CELL(abcABC):  188.97261   188.97261   188.97261    90.00000    90.00000    90.00000  Step:        1120  Bead:       1 velocities{atomic_unit}  cell{atomic_unit}
       O -9.57608e-05  7.90558e-04 -1.97634e-04
       H  7.99697e-05 -1.31972e-03  4.00184e-03
2
# CELL(abcABC):  188.97261   188.97261   188.97261    90.00000    90.00000    90.00000  Step:        1160  Bead:       1 velocities{atomic_unit}  cell{atomic_unit}
       O -1.36287e-04 -4.03953e-04 -3.79580e-04
       H -2.20777e-03  2.44877e-03  5.04363e-03
2
# CELL(abcABC):  188.97261   188.97261   188.97261    90.00000    90.00000    90.00000  Step:        1200  Bead:       1 velocities{atomic_unit}  cell{atomic_unit}
       O -6.69422e-05 -1.49360e-04 -2.00976e-04
       H -3.02798e-04 -1.02088e-04  2.45094e-03
2
# CELL(abcABC):  188.97261   188.97261   188.97261    90.00000    90.00000    90.00000  Step:        1240  Bead:       1 velocities{atomic_unit}  cell{atomic_unit}
       O -2.45982e-05  7.72471e-04 -1.05697e-04
       H -9.48739e-04 -1.58230e-03  3.03854e-03
2
# CELL(abcABC):  188.97261   188.97261   188.97261    90.00000    90.00000    90.00000  Step:        1280  Bead:       1 velocities{atomic_unit}  cell{atomic_unit}
       O -3.05317e-04 -7.79525e-04 -4.15663e-04
       H -3.27653e-04  2.72514e-03  4.48124e-03
2
# CELL(abcABC):  188.97261   188.97261   188.97261    90.00000    90.00000    90.00000  Step:        1320  Bead:       1 velocities{atomic_unit}  cell{atomic_unit}
       O  2.32508e-04  7.61976e-04 -3.64461e-05
       H -1.54214e-03 -3.16294e-03  1.13788e-03
2
# CELL(abcABC):  188.97261   188.97261   188.97261    90.00000    90.00000    90.00000  Step:        1360  Bead:       1 velocities{atomic_unit}  cell{atomic_unit}
       O -4.05731e-04 -1.90797e-04 -3.30090e-04
       H  5.05370e-04  2.05223e-03  4.52934e-03
2
# CELL(abcABC):  188.97261   188.97261   188.97261    90.00000    90.00000    90.00000  Step:        1400  Bead:       1 velocities{atomic_unit}  cell{atomic_unit}
       O  3.70759e-05 -2.99958e-04 -1.54771e-04
       H -2.06916e-03  6.72801e-04  1.64082e-03
2
# CELL(abcABC):  188.97261   188.97261   188.97261    90.00000    90.00000    90.00000  Step:        1440  Bead:       1 velocities{atomic_unit}  cell{atomic_unit}
       O -3.87536e-05  5.95334e-04 -1.32343e-04
       H  3.71546e-04  4.14365e-04  3.09148e-03
2
# CELL(abcABC):  188.97261   188.97261   188.97261    90.00000    90.00000    90.00000  Step:        1480  Bead:       1 velocities{atomic_unit}  cell{atomic_unit}
       O -4.74777e-04 -5.71140e-04 -1.87947e-04
       H  4.65392e-04  1.43545e-03  1.29399e-03
2
# CELL(abcABC):  188.97261   188.97261   188.97261    90.00000    90.00000    90.00000  Step:        1520  Bead:       1 velocities{atomic_unit}  cell{atomic_unit}
       O  2.31271e-04  3.43406e-04 -2.68220e-04
       H -1.78547e-03  3.98634e-04  3.76892e-03
2
# CELL(abcABC):  188.97261   188.97261   188.97261    90.00000    90.00000    90.00000  Step:        1560  Bead:       1 velocities{atomic_unit}  cell{atomic_unit}
       O -3.26735e-04  1.30364e-04 -1.44854e-05
       H  1.35557e-03  2.29447e-04  1.42757e-03
2
# CELL(abcABC):  188.97261   188.97261   188.97261    90.00000    90.00000    90.00000  Step:        1600  Bead:       1 velocities{atomic_unit}  cell{atomic_unit}
       O -1.20488e-04 -4.65044e-04 -3.56297e-04
       H -1.96427e-03  9.18866e-04  3.46128e-03
2
# CELL(abcABC):  188.97261   188.97261   188.97261    90.00000    90.00000    90.00000  Step:        1640  Bead:       1 velocities{atomic_unit}  cell{atomic_unit}
       O  6.83849e-05  6.19223e-04 -1.32387e-04
       H  1.03456e-03 -5.82986e-04  4.14851e-03
2
# CELL(abcABC):  188.97261   188.97261   188.97261    90.00000    90.00000    90.00000  Step:        1680  Bead:       1 velocities{atomic_unit}  cell{atomic_unit}
       O -4.91419e-04 -3.38873e-04 -1.52000e-04
       H -1.75825e-03  1.19009e-03  8.34900e-04
2
# CELL(abcABC):  188.97261   188.97261   188.97261    90.00000    90.00000    90.00000  Step:        1720  Bead:       1 velocities{atomic_unit}  cell{atomic_unit}
       O  2.55252e-04  2.28601e-05 -3.82724e-04
       H -7.66797e-04 -5.56893e-04  5.72519e-03
2
# CELL(abcABC):  188.97261   188.97261   188.97261    90.00000    90.00000    90.00000  Step:        1760  Bead:       1 velocities{atomic_unit}  cell{atomic_unit}
       O -3.56263e-04  4.67016e-04 -4.40061e-05
       H  5.76223e-04 -7.10143e-04  6.99205e-04
2
# CELL(abcABC):  188.97261   188.97261   188.97261    90.00000    90.00000    90.00000  Step:        1800  Bead:       1 velocities{atomic_unit}  cell{atomic_unit}
       O -3.36284e-05 -5.54844e-04 -2.21276e-04
       H -2.49620e-03  1.33422e-03  2.64522e-03
2
# CELL(abcABC):  188.97261   188.97261   188.97261    90.00000    90.00000    90.00000  Step:        1840  Bead:       1 velocities{atomic_unit}  cell{atomic_unit}
       O -3.50665e-05  5.65102e-04  3.34662e-05
       H  1.97992e-03 -1.00576e-03  2.67586e-04
2
# CELL(abcABC):  188.97261   188.97261   188.97261    90.00000    90.00000    90.00000  Step:        1880  Bead:       1 velocities{atomic_unit}  cell{atomic_unit}
       O -3.55327e-04 -1.35064e-04 -3.79333e-05
       H -1.85099e-03  6.33270e-04 -3.84934e-04
2
# CELL(abcABC):  188.97261   188.97261   188.97261    90.00000    90.00000    90.00000  Step:        1920  Bead:       1 velocities{atomic_unit}  cell{atomic_unit}
       O  5.99502e-05 -2.10485e-04  2.99448e-05
       H  7.64374e-04  4.99216e-04  3.50480e-04
2
# CELL(abcABC):  188.97261   188.97261   188.97261    90.00000    90.00000    90.00000  Step:        1960  Bead:       1 velocities{atomic_unit}  cell{atomic_unit}
       O -2.56414e-04  5.53974e-04  2.10279e-05
       H  8.39692e-04 -9.74744e-04 -1.74294e-03
2
# CELL(abcABC):  188.97261   188.97261   188.97261    90.00000    90.00000    90.00000  Step:        2000  Bead:       1 velocities{atomic_unit}  cell{atomic_unit}
       O -1.67900e-04 -4.59863e-04  8.79676e-05
       H -1.61528e-03  8.65083e-04 -1.05951e-03
2
# CELL(abcABC):  188.97261   188.97261   188.97261    90.00000    90.00000    90.00000  Step:        2040  Bead:       1 velocities{atomic_unit}  cell{atomic_unit}
       O  2.97455e-05  3.68120e-04  1.36337e-04
       H  2.21815e-03 -7.29451e-04 -2.85815e-03
2
# CELL(abcABC):  188.97261   188.97261   188.97261    90.00000    90.00000    90.00000  Step:        2080  Bead:       1 velocities{atomic_unit}  cell{atomic_unit}
       O -5.16413e-04  6.00721e-05  1.36148e-04
       H -4.63392e-04  2.67651e-04 -1.34451e-03
2
# CELL(abcABC):  188.97261   188.97261   188.97261    90.00000    90.00000    90.00000  Step:        2120  Bead:       1 velocities{atomic_unit}  cell{atomic_unit}
       O  9.34876e-05 -3.51311e-04  1.22614e-04
       H  2.84987e-04  5.73990e-04 -2.64417e-03
2
# CELL(abcABC):  188.97261   188.97261   188.97261    90.00000    90.00000    90.00000  Step:        2160  Bead:       1 velocities{atomic_unit}  cell{atomic_unit}
       O -1.69288e-04  5.82613e-04  5.73835e-05
       H  1.17930e-03 -9.50971e-05 -1.59744e-03
2
# CELL(abcABC):  188.97261   188.97261   188.97261    90.00000    90.00000    90.00000  Step:        2200  Bead:       1 velocities{atomic_unit}  cell{atomic_unit}
       O -3.25792e-04 -4.62603e-04  2.29546e-04
       H -1.40021e-03  1.65996e-03 -1.43651e-03
2
# CELL(abcABC):  188.97261   188.97261   188.97261    90.00000    90.00000    90.00000  Step:        2240  Bead:       1 velocities{atomic_unit}  cell{atomic_unit}
       O  9.79030e-05  3.27448e-04  9.07713e-05
       H  1.88633e-03 -1.40512e-03 -3.48411e-03
2
# CELL(abcABC):  188.97261   188.97261   188.97261    90.00000    90.00000    90.00000  Step:        2280  Bead:       1 velocities{atomic_unit}  cell{atomic_unit}
       O -3.41153e-04  3.18289e-05  4.70121e-05
       H -4.88592e-04  1.46439e-03 -1.17694e-03
2
# CELL(abcABC):  188.97261   188.97261   188.97261    90.00000    90.00000    90.00000  Step:        2320  Bead:       1 velocities{atomic_unit}  cell{atomic_unit}
       O -1.12353e-04 -2.13167e-04  2.91016e-04
       H  5.61700e-04 -2.21423e-04 -2.82543e-03
2
# CELL(abcABC):  188.97261   188.97261   188.97261    90.00000    90.00000    90.00000  Step:        2360  Bead:       1 velocities{atomic_unit}  cell{atomic_unit}
       O  2.08007e-05  3.11164e-04 -1.46030e-04
       H  1.01688e-03  4.23655e-04  1.24964e-06
2
# CELL(abcABC):  188.97261   188.97261   188.97261    90.00000    90.00000    90.00000  Step:        2400  Bead:       1 velocities{atomic_unit}  cell{atomic_unit}
       O -4.54321e-04 -2.35542e-04  1.54140e-04
       H -1.63976e-03  1.22530e-03 -1.19736e-03
2
# CELL(abcABC):  188.97261   188.97261   188.97261    90.00000    90.00000    90.00000  Step:        2440  Bead:       1 velocities{atomic_unit}  cell{atomic_unit}
       O  7.30903e-05  1.03267e-04  7.26229e-05
       H  2.41194e-03 -5.00130e-04 -1.34237e-03
2
# CELL(abcABC):  188.97261   188.97261   188.97261    90.00000    90.00000    90.00000  Step:        2480  Bead:       1 velocities{atomic_unit}  cell{atomic_unit}
       O -2.91597e-04  1.74624e-04 -1.01679e-04
       H -1.08942e-03  9.86288e-04 -2.71323e-06
2
# CELL(abcABC):  188.97261   188.97261   188.97261    90.00000    90.00000    90.00000  Step:        2520  Bead:       1 velocities{atomic_unit}  cell{atomic_unit}
       O -1.60189e-04 -2.36340e-04  2.62590e-04
       H  1.58299e-04  4.39815e-04 -1.50180e-03
2
# CELL(abcABC):  188.97261   188.97261   188.97261    90.00000    90.00000    90.00000  Step:        2560  Bead:       1 velocities{atomic_unit}  cell{atomic_unit}
       O  7.59507e-06  2.98187e-04 -1.77340e-04
       H  1.08017e-03 -3.19240e-04 -1.31406e-04
2
# CELL(abcABC):  188.97261   188.97261   188.97261    90.00000    90.00000    90.00000  Step:        2600  Bead:       1 velocities{atomic_unit}  cell{atomic_unit}
       O -3.54678e-04 -4.66660e-05  9.81544e-05
       H -1.69784e-03  8.56876e-04 -2.62193e-04
2
# CELL(abcABC):  188.97261   188.97261   188.97261    90.00000    90.00000    90.00000  Step:        2640  Bead:       1 velocities{atomic_unit}  cell{atomic_unit}
       O -5.02199e-05 -1.19550e-04 -3.53074e-05
       H  2.06086e-03  5.37855e-04  1.86863e-04
2
# CELL(abcABC):  188.97261   188.97261   188.97261    90.00000    90.00000    90.00000  Step:        2680  Bead:       1 velocities{atomic_unit}  cell{atomic_unit}
       O -1.16334e-04  2.58296e-04 -2.15899e-05
       H -8.66795e-04  1.07054e-03 -1.11040e-03
2
# CELL(abcABC):  188.97261   188.97261   188.97261    90.00000    90.00000    90.00000  Step:        2720  Bead:       1 velocities{atomic_unit}  cell{atomic_unit}
       O -2.65415e-04 -2.88621e-04  7.38651e-05
       H -2.49751e-04  5.11697e-04  7.87573e-04
2
# CELL(abcABC):  188.97261   188.97261   188.97261    90.00000    90.00000    90.00000  Step:        2760  Bead:       1 velocities{atomic_unit}  cell{atomic_unit}
       O  6.86136e-06  2.30552e-04 -1.13358e-04
       H  1.28884e-03  8.88377e-04 -5.56698e-04
2
# CELL(abcABC):  188.97261   188.97261   188.97261    90.00000    90.00000    90.00000  Step:        2800  Bead:       1 velocities{atomic_unit}  cell{atomic_unit}
       O -2.31699e-04 -9.36113e-05 -2.52613e-05
       H -2.88640e-04  2.44468e-03  3.76701e-04
2
# CELL(abcABC):  188.97261   188.97261   188.97261    90.00000    90.00000    90.00000  Step:        2840  Bead:       1 velocities{atomic_unit}  cell{atomic_unit}
       O -2.27483e-04 -1.23523e-04  3.68068e-05
       H  3.33453e-04 -7.21599e-04  5.66320e-04
2
# CELL(abcABC):  188.97261   188.97261   188.97261    90.00000    90.00000    90.00000  Step:        2880  Bead:       1 velocities{atomic_unit}  cell{atomic_unit}
       O  5.30523e-05  2.58354e-04 -6.46317e-05
       H  1.25186e-04  2.00634e-03 -2.11682e-04
2
# CELL(abcABC):  188.97261   188.97261   188.97261    90.00000    90.00000    90.00000  Step:        2920  Bead:       1 velocities{atomic_unit}  cell{atomic_unit}
       O -3.71998e-04 -2.41432e-04 -2.04519e-05
       H -4.53404e-04 -3.14315e-04  6.95351e-04
2
# CELL(abcABC):  188.97261   188.97261   188.97261    90.00000    90.00000    90.00000  Step:        2960  Bead:       1 velocities{atomic_unit}  cell{atomic_unit}
       O  6.40744e-05  1.41068e-04 -2.32613e-05
       H  1.28770e-03  1.77229e-03  4.76352e-04
2
# CELL(abcABC):  188.97261   188.97261   188.97261    90.00000    90.00000    90.00000  Step:        3000  Bead:       1 velocities{atomic_unit}  cell{atomic_unit}
       O -2.23356e-04  5.89674e-05 -1.12086e-04
       H -1.34161e-03 -3.56095e-07  1.51923e-04
2
# CELL(abcABC):  188.97261   188.97261   188.97261    90.00000    90.00000    90.00000  Step:        3040  Bead:       1 velocities{atomic_unit}  cell{atomic_unit}
       O -2.37786e-04 -1.69671e-04  1.60431e-05
       H  7.00458e-04  7.58322e-04  1.25989e-03
2
# CELL(abcABC):  188.97261   188.97261   188.97261    90.00000    90.00000    90.00000  Step:        3080  Bead:       1 velocities{atomic_unit}  cell{atomic_unit}
       O  2.16214e-06  2.62970e-04 -1.68062e-04
       H -5.55990e-05  1.58485e-03  8.06140e-04
2
# CELL(abcABC):  188.97261   188.97261   188.97261    90.00000    90.00000    90.00000  Step:        3120  Bead:       1 velocities{atomic_unit}  cell{atomic_unit}
       O -3.33198e-04 -2.90877e-04 -3.34409e-05
       H  3.84607e-04  5.86419e-04  8.01903e-04
2
# CELL(abcABC):  188.97261   188.97261   188.97261    90.00000    90.00000    90.00000  Step:        3160  Bead:       1 velocities{atomic_unit}  cell{atomic_unit}
       O -8.31279e-05  1.72433e-04 -8.70188e-05
       H -1.71027e-04  1.01518e-03  1.73901e-03
2
# CELL(abcABC):  188.97261   188.97261   188.97261    90.00000    90.00000    90.00000  Step:        3200  Bead:       1 velocities{atomic_unit}  cell{atomic_unit}
       O -8.24153e-05 -4.48985e-05 -1.18262e-04
       H  1.39486e-05  1.90170e-03  5.13357e-04
2
# CELL(abcABC):  188.97261   188.97261   188.97261    90.00000    90.00000    90.00000  Step:        3240  Bead:       1 velocities{atomic_unit}  cell{atomic_unit}
       O -3.28001e-04 -2.57604e-04 -1.08952e-04
       H  7.87871e-04  1.74524e-03  2.30671e-03
2
# CELL(abcABC):  188.97261   188.97261   188.97261    90.00000    90.00000    90.00000  Step:        3280  Bead:       1 velocities{atomic_unit}  cell{atomic_unit}
       O  3.32948e-05  2.01020e-04 -1.48461e-04
       H -5.19919e-04  2.06096e-03  1.87485e-03
2
# CELL(abcABC):  188.97261   188.97261   188.97261    90.00000    90.00000    90.00000  Step:        3320  Bead:       1 velocities{atomic_unit}  cell{atomic_unit}
       O -2.80356e-04 -2.55230e-04 -6.40781e-05
       H  4.43259e-04  1.75812e-03  1.06050e-03
2
# CELL(abcABC):  188.97261   188.97261   188.97261    90.00000    90.00000    90.00000  Step:        3360  Bead:       1 velocities{atomic_unit}  cell{atomic_unit}
       O -7.60982e-05  2.10362e-05 -2.00365e-04
       H  5.55719e-04  8.83502e-04  2.25720e-03
2
# CELL(abcABC):  188.97261   188.97261   188.97261    90.00000    90.00000    90.00000  Step:        3400  Bead:       1 velocities{atomic_unit}  cell{atomic_unit}
       O -7.97352e-05 -3.62485e-06 -4.98423e-05
       H -2.93094e-04  2.72917e-03  1.94099e-03
2
# CELL(abcABC):  188.97261   188.97261   188.97261    90.00000    90.00000    90.00000  Step:        3440  Bead:       1 velocities{atomic_unit}  cell{atomic_unit}
       O -2.54205e-04 -2.25243e-04 -1.55809e-04
       H  8.78760e-04  6.61299e-04  7.73609e-04
2
# CELL(abcABC):  188.97261   188.97261   188.97261    90.00000    90.00000    90.00000  Step:        3480  Bead:       1 velocities{atomic_unit}  cell{atomic_unit}
       O -1.11727e-04  1.61576e-04 -6.07026e-05
       H -2.23901e-04  1.58052e-03  2.55801e-03
2
# CELL(abcABC):  188.97261   188.97261   188.97261    90.00000    90.00000    90.00000  Step:        3520  Bead:       1 velocities{atomic_unit}  cell{atomic_unit}
       O -1.97700e-04  1.61535e-05  1.73870e-05
       H  1.78633e-04  3.35962e-04 -2.23530e-03
2
# CELL(abcABC):  188.97261   188.97261   188.97261    90.00000    90.00000    90.00000  Step:        3560  Bead:       1 velocities{atomic_unit}  cell{atomic_unit}
       O -1.20221e-04 -4.00958e-05 -1.79203e-04
       H  6.69504e-04 -2.45289e-04  1.57778e-03
2
# CELL(abcABC):  188.97261   188.97261   188.97261    90.00000    90.00000    90.00000  Step:        3600  Bead:       1 velocities{atomic_unit}  cell{atomic_unit}
       O -1.40028e-05  3.65310e-04  4.07264e-04
       H -1.31402e-03 -1.56908e-03 -3.78241e-03
2
# CELL(abcABC):  188.97261   188.97261   188.97261    90.00000    90.00000    90.00000  Step:        3640  Bead:       1 velocities{atomic_unit}  cell{atomic_unit}
       O -3.06487e-04 -1.34554e-04 -2.12721e-04
       H  8.35657e-04 -1.30097e-04 -4.92989e-04
2
# CELL(abcABC):  188.97261   188.97261   188.97261    90.00000    90.00000    90.00000  Step:        3680  Bead:       1 velocities{atomic_unit}  cell{atomic_unit}
       O  6.47688e-05  3.29525e-04  3.61452e-04
       H -4.57451e-04 -3.07238e-03 -2.94200e-03
2
# CELL(abcABC):  188.97261   188.97261   188.97261    90.00000    90.00000    90.00000  Step:        3720  Bead:       1 velocities{atomic_unit}  cell{atomic_unit}
       O -1.86033e-04  2.72807e-05 -1.55027e-05
       H -7.04686e-04  7.25938e-04 -1.51489e-03
2
# CELL(abcABC):  188.97261   188.97261   188.97261    90.00000    90.00000    90.00000  Step:        3760  Bead:       1 velocities{atomic_unit}  cell{atomic_unit}
       O -2.22969e-04  9.52199e-05  1.64994e-05
       H  1.13029e-03 -2.75505e-03 -1.59208e-03
2
# CELL(abcABC):  188.97261   188.97261   188.97261    90.00000    90.00000    90.00000  Step:        3800  Bead:       1 velocities{atomic_unit}  cell{atomic_unit}
       O  1.46386e-04  1.39049e-04  2.46548e-04
       H -1.53946e-03  1.09397e-03 -1.14801e-03
2
# CELL(abcABC):  188.97261   188.97261   188.97261    90.00000    90.00000    90.00000  Step:        3840  Bead:       1 velocities{atomic_unit}  cell{atomic_unit}
       O -4.68743e-04  2.92939e-05 -1.70035e-04
       H  1.10106e-03 -1.09176e-03 -1.53682e-03
2
# CELL(abcABC):  188.97261   188.97261   188.97261    90.00000    90.00000    90.00000  Step:        3880  Bead:       1 velocities{atomic_unit}  cell{atomic_unit}
       O  2.05310e-04  1.87188e-04  1.87607e-04
       H  3.30283e-04 -8.34978e-04 -7.88553e-04
2
# CELL(abcABC):  188.97261   188.97261   188.97261    90.00000    90.00000    90.00000  Step:        3920  Bead:       1 velocities{atomic_unit}  cell{atomic_unit}
       O -2.46324e-04 -3.69098e-05  5.30454e-05
       H -1.50693e-03  1.15531e-03 -6.39097e-04
2
# CELL(abcABC):  188.97261   188.97261   188.97261    90.00000    90.00000    90.00000  Step:        3960  Bead:       1 velocities{atomic_unit}  cell{atomic_unit}
       O -3.04918e-04  4.73919e-05 -1.40033e-04
       H  1.85375e-03 -1.71463e-03 -6.94425e-04
2
# CELL(abcABC):  188.97261   188.97261   188.97261    90.00000    90.00000    90.00000  Step:        4000  Bead:       1 velocities{atomic_unit}  cell{atomic_unit}
       O  2.91079e-04  1.11863e-04  1.52174e-04
       H -7.98159e-04  1.42681e-03  5.58342e-05
2
# CELL(abcABC):  188.97261   188.97261   188.97261    90.00000    90.00000    90.00000  Step:        4040  Bead:       1 velocities{atomic_unit}  cell{atomic_unit}
       O -6.79496e-04 -4.76456e-05  1.40432e-05
       H -3.20649e-04  4.22933e-04 -5.32556e-04
2
# CELL(abcABC):  188.97261   188.97261   188.97261    90.00000    90.00000    90.00000  Step:        4080  Bead:       1 velocities{atomic_unit}  cell{atomic_unit}
       O  2.01982e-04  4.84895e-05 -1.69684e-04
       H  1.43392e-03 -6.57610e-04  2.57478e-04
2
# CELL(abcABC):  188.97261   188.97261   188.97261    90.00000    90.00000    90.00000  Step:        4120  Bead:       1 velocities{atomic_unit}  cell{atomic_unit}
       O -2.21267e-04  6.58860e-05  1.90540e-04
       H -9.78399e-04  1.97540e-03  7.59866e-04
2
# CELL(abcABC):  188.97261   188.97261   188.97261    90.00000    90.00000    90.00000  Step:        4160  Bead:       1 velocities{atomic_unit}  cell{atomic_unit}
       O -3.79231e-04 -1.10317e-04 -2.34337e-04
       H  1.25833e-03 -1.13198e-05 -2.86496e-04
2
# CELL(abcABC):  188.97261   188.97261   188.97261    90.00000    90.00000    90.00000  Step:        4200  Bead:       1 velocities{atomic_unit}  cell{atomic_unit}
       O  3.14025e-04  1.30860e-04 -4.00424e-05
       H  4.88149e-04  1.87440e-03  1.14892e-03
2
# CELL(abcABC):  188.97261   188.97261   188.97261    90.00000    90.00000    90.00000  Step:        4240  Bead:       1 velocities{atomic_unit}  cell{atomic_unit}
       O -5.84592e-04 -4.40469e-05  4.80117e-05
       H -6.83332e-04  4.52805e-04  4.99788e-04
2
# CELL(abcABC):  188.97261   188.97261   188.97261    90.00000    90.00000    90.00000  Step:        4280  Bead:       1 velocities{atomic_unit}  cell{atomic_unit}
       O  1.25367e-04 -1.20609e-04 -2.35177e-04
       H  1.12273e-03  1.48258e-03  4.49462e-04
2
# CELL(abcABC):  188.97261   188.97261   188.97261    90.00000    90.00000    90.00000  Step:        4320  Bead:       1 velocities{atomic_unit}  cell{atomic_unit}
       O -1.84889e-04  1.03903e-04  1.06898e-04
       H -3.06721e-05  1.40036e-03  1.85559e-03
2
# CELL(abcABC):  188.97261   188.97261   188.97261    90.00000    90.00000    90.00000  Step:        4360  Bead:       1 velocities{atomic_unit}  cell{atomic_unit}
       O -3.47052e-04 -2.63547e-04 -1.58511e-04
       H  2.71047e-04  1.19393e-03  4.95647e-04
2
# CELL(abcABC):  188.97261   188.97261   188.97261    90.00000    90.00000    90.00000  Step:        4400  Bead:       1 velocities{atomic_unit}  cell{atomic_unit}
       O  1.43961e-04  9.18603e-05 -1.31972e-04
       H  1.38957e-03  2.22821e-03  1.55370e-03
2
# CELL(abcABC):  188.97261   188.97261   188.97261    90.00000    90.00000    90.00000  Step:        4440  Bead:       1 velocities{atomic_unit}  cell{atomic_unit}
       O -4.78721e-04 -9.26740e-05  4.10719e-05
       H -3.13040e-05  1.24228e-03  1.35661e-03
2
# CELL(abcABC):  188.97261   188.97261   188.97261    90.00000    90.00000    90.00000  Step:        4480  Bead:       1 velocities{atomic_unit}  cell{atomic_unit}
       O -2.03137e-06 -1.70115e-04 -1.93298e-04
       H  7.70868e-04  1.23799e-03  2.80532e-04
2
# CELL(abcABC):  188.97261   188.97261   188.97261    90.00000    90.00000    90.00000  Step:        4520  Bead:       1 velocities{atomic_unit}  cell{atomic_unit}
       O -1.30185e-05  2.82961e-04  5.09741e-05
       H -1.97962e-04 -3.43850e-04  2.04654e-04
2