LAMMPS data file via write_data, version 23 Jun 2022, timestep = 2000000

2156 atoms
8 atom types
1384 bonds
4 bond types
1312 angles
5 angle types
1610 dihedrals
10 dihedral types
720 impropers
1 improper types

-0.6578265354557387 21.657826535455136 xlo xhi
-0.602134781770771 21.60213478176873 ylo yhi
0 140 zlo zhi

Masses

1 12.011
2 12.011
3 12.011
4 15.999
5 15.999
6 1.008
7 15.999
8 1.008

Bond Coeffs # harmonic

1 320 1.41
2 450 1.364
3 553 0.945
4 0 0

Angle Coeffs # harmonic

1 35 113
2 50 109.5
3 60 109.5
4 0 0
5 70 120

Dihedral Coeffs # opls

1 0 1.682 0 0
2 -0.55 0 0 0
3 -0.521 -2.018 1.996 0
4 0.65 -0.25 0.67 0
5 1.711 -0.5 0.663 0
6 0.5 0 0 0
7 0 0 0 0
8 0 7.25 0 0
9 0 7.25 0 0
10 1.3 -0.05 0.2 0

Improper Coeffs # harmonic

1 2.5 180

Atoms # full

206 1 4 -0.36 1.8535863403584314 0.5759507825495802 16.210734113240694 1 0 0
41 1 2 0.18 9.217669650380607 1.8213932792607912 16.35250895295152 0 0 0
105 1 3 0.18 7.919015737637489 -0.4969601492745957 16.55000789707905 0 0 0
249 1 5 -0.57 6.938773897642445 -0.4304090308098022 15.414772004569794 0 0 0
208 1 4 -0.36 4.772654636781676 1.5475984381191854 17.116012898435475 0 0 0
43 1 2 0.18 2.9017662976155543 3.3403355675693622 16.857448160808985 0 0 0
190 1 4 -0.36 4.245497570719088 8.776590127753478 15.270908430836641 0 0 0
186 1 4 -0.36 9.84606128150975 4.26692228682774 15.198018001306648 0 0 0
83 1 2 0.18 6.648299486651112 9.049768956947009 15.955034482440754 0 0 0
51 1 2 0.18 5.298552926706024 6.71505919822949 16.285255050289173 0 0 0
210 1 4 -0.36 7.266858881436811 6.123776868128982 15.209658046961232 0 0 0
193 1 4 -0.36 8.287954947642392 2.2854793042676524 15.397638937492328 0 0 0
34 1 2 0.18 4.061150736095616 8.98631069206973 16.66011594050074 0 0 0
159 1 1 0 10.48906441237414 -0.43467674664547923 16.758519541351664 0 0 0
250 1 5 -0.57 9.623351374793895 0.18654749570960252 14.638454850768749 0 0 0
209 1 4 -0.36 4.437304524914148 6.13907096133786 15.222315121910395 0 0 0
221 1 4 -0.36 6.534220858345322 9.91347652124562 14.760796821968981 0 0 0
199 1 4 -0.36 3.8876573190271992 3.5614464788472118 15.821737020327184 0 0 0
44 1 2 0.18 4.150224077631509 4.326516077772378 16.951096221175327 0 0 0
52 1 2 0.18 4.066711389081688 5.914075666910472 16.62766149431716 0 0 0
71 1 2 0.18 -0.3178027714840762 0.43582859165673027 17.39973980319794 1 0 0
33 1 2 0.18 5.30506062613292 8.251659983793877 16.163637629583505 0 0 0
49 1 2 0.18 6.678198353694926 6.065341256053903 16.50911367086527 0 0 0
106 1 3 0.18 9.32361994352859 0.2627860918225593 16.113120402463114 0 0 0
42 1 2 0.18 7.978485421128024 2.514837684474359 16.792258004191893 0 0 0
31 1 2 0.18 9.294878733505634 6.224566512008635 16.602147778354503 0 0 0
36 1 2 0.18 8.060404079946847 3.9927716447627057 16.95910641718822 0 0 0
60 1 2 0.18 9.273416689072791 9.21205425128836 16.117723514642645 0 0 0
180 1 1 0 7.933543618215555 8.385832053362034 16.099186306502926 0 0 0
50 1 2 0.18 7.972866778092941 6.866940654473633 16.306681543378872 0 0 0
70 1 2 0.18 1.0623706432941094 -0.22714908972620143 17.09709989695801 1 0 0
37 1 2 0.18 9.320854345262129 4.767040818548826 16.519111905918784 0 0 0
289 1 6 0.39 7.127064623644135 0.18149230581141945 14.682488286893381 0 0 0
160 1 1 0 2.7524411223672876 8.14320975283523 17.115413896456054 0 0 0
35 1 2 0.18 6.776787632668916 4.681792191817638 17.160285431327782 0 0 0
145 1 1 0 4.28038118779923 10.427219114823712 17.107041966783946 0 0 0
211 1 4 -0.36 9.961470213931875 9.118372493073927 17.382640008303856 0 0 0
40 1 2 0.18 10.465923651746056 2.5549876209591003 16.8280057548749 0 0 0
82 1 2 0.18 3.0895008692451644 6.707727696199806 17.434839516378574 0 0 0
1611 435 8 0.4238 1.7456870417267847 5.228716622892019 24.513515848579285 -1 -1 0
81 1 2 0.18 2.3052763164883183 6.159545492610513 18.553760398805924 1 0 0
184 1 4 -0.36 9.994034176238616 6.645010848240794 17.797679356610843 0 0 0
1441 378 8 0.4238 2.244976794071564 10.02288684416564 23.93268294408015 -2 -2 0
721 138 8 0.4238 6.6388957894037075 0.6667313389736793 26.159863936190206 2 1 0
154 1 1 0 2.39245406534121 10.05580960226681 18.80266572502803 1 0 0
404 33 7 -0.8476 6.386703969501011 8.270228022769164 19.897794403134206 -1 -2 0
204 1 4 -0.36 0.49805437805086245 1.5495657629361421 19.41296335880517 1 0 0
656 117 7 -0.8476 8.194868877667323 2.653279834547164 20.98054281897154 -1 0 0
178 1 1 0 3.4656175328740995 -0.5319520526152891 18.1054089406707 0 0 0
1137 277 8 0.4238 6.138739857052355 4.230316169068664 25.628149843707753 1 0 0
134 1 3 0.18 -0.021701176443648766 9.405310442685332 18.229321258587046 1 0 0
207 1 4 -0.36 7.950007296819322 1.1669338464383705 18.64976679504694 0 0 0
1776 490 8 0.4238 -0.36122825686191723 1.7436835806074618 24.56571332606605 1 2 0
485 60 7 -0.8476 9.244678114038305 8.800111349128665 22.647915240475523 2 0 0
1445 380 7 -0.8476 7.106883503215087 5.745221549525674 20.58588931508996 0 1 0
903 199 8 0.4238 8.451651463260546 1.3051366457967857 22.070041845867483 -1 3 0
222 1 4 -0.36 3.6912504761304015 6.65790212950329 18.763722983100262 1 0 0
56 1 2 0.18 7.19577916767323 0.24306637014388235 17.719293168659362 0 0 0
1435 376 8 0.4238 4.190782714835141 10.430125060921489 21.606069658783905 -1 -1 0
658 117 8 0.4238 9.023639615217498 3.2100656621156 20.924583682279057 -1 0 0
248 1 5 -0.57 4.357094330697381 -0.053344390300357876 20.35903665546061 0 0 0
130 1 3 0.18 5.463431063463018 3.8915699076273715 17.718051468161022 0 0 0
904 199 8 0.4238 8.139158202096226 -0.0062196277653194755 22.903789997071478 -1 3 0
560 85 7 -0.8476 -0.3672971957977076 7.171928381246332 24.347110867772823 2 -1 0
319 4 8 0.4238 5.639591333004918 0.5653299096158256 24.300607029024658 -1 1 0
960 218 8 0.4238 9.436562624176752 3.227301865157501 25.74414710142454 2 0 0
132 1 3 0.18 -0.3256520989761477 6.421095806248569 19.27325085447736 1 0 0
300 1 6 0.39 6.117335424800309 4.448789471956903 19.548644136069637 0 0 0
1471 388 8 0.4238 0.343651774345139 9.59779062124692 22.914476742392853 -1 1 0
884 193 7 -0.8476 -0.23241081614469047 0.5118691964691211 21.933013315773934 2 0 0
481 58 8 0.4238 6.075197642254393 3.408343603974329 23.295212334030882 1 -2 0
406 33 8 0.4238 5.566818222728146 8.391759395761177 20.45727622829888 -1 -2 0
302 1 6 0.39 0.983978322440187 8.01832472402941 21.013081743122743 1 0 0
818 171 7 -0.8476 4.130845231288864 5.71280370686568 21.39310423977916 1 0 0
1013 236 7 -0.8476 3.2494379343038187 7.812523035054167 25.96568399112606 1 0 0
299 1 6 0.39 3.573530878963471 3.3429041580693015 20.710197337506095 0 0 0
820 171 8 0.4238 5.111543774199367 5.668863993730283 21.58363805120626 1 0 0
657 117 8 0.4238 8.211038649649302 2.08207466222175 20.15989456669722 -1 0 0
22 1 2 0.18 -0.30053143746360755 1.7737781821277452 18.224824159349343 1 0 0
172 1 1 0 2.149177136754762 4.735887914705657 18.64858060798101 1 0 0
819 171 8 0.4238 4.082790504801065 6.010446720197312 20.43963715073514 1 0 0
988 227 8 0.4238 3.849772604777129 8.805079561716502 22.290479323144503 0 -1 0
1568 421 7 -0.8476 10.001207444135293 7.1921298859002585 20.73594068815543 0 1 0
1311 335 8 0.4238 5.64964249860649 1.3026469484793666 22.4722674880497 -3 2 0
1310 335 7 -0.8476 5.955598944161241 0.3508486818651402 22.493993824199862 -3 2 0
987 227 8 0.4238 3.572314856013878 8.043560525907145 20.92806818380312 0 -1 0
1447 380 8 0.4238 8.096950932956036 5.609419229639847 20.622327855368347 0 1 0
192 1 4 -0.36 7.746483587045537 4.52987345618924 18.235379908051044 0 0 0
179 1 1 0 2.306317375956898 2.165739681637397 17.90351406594565 1 0 0
986 227 7 -0.8476 4.10024133659862 8.795756078116147 21.322399405581038 0 -1 0
1000 231 8 0.4238 10.174946210696763 6.549671201364881 24.185179063549377 -2 2 0
1556 417 7 -0.8476 8.563461121886538 6.400527445259209 23.85188333764853 0 2 0
53 1 2 0.18 4.6403325847784584 1.5935321895640393 18.562243968669023 0 0 0
317 4 7 -0.8476 5.291622855009742 0.5054692962400044 25.236200474298673 -1 1 0
1558 417 8 0.4238 7.958431562241921 5.688343541450858 23.495884482038154 0 2 0
1399 364 8 0.4238 2.7814633052585487 2.323305282113068 22.897708183220267 2 0 0
792 162 8 0.4238 2.9829787274812016 2.2891590937104653 25.106281183723123 -1 3 0
19 1 2 0.18 -0.35896505184262045 4.708639318450742 19.091021089446766 1 0 0
885 193 8 0.4238 0.04098498275975917 0.9340469276797063 21.06870945725972 2 0 0
301 1 6 0.39 0.9362039130626236 7.7690634422085845 21.033472827847827 1 0 0
1136 277 7 -0.8476 6.77754189590945 4.09546389428352 24.870688097886937 1 0 0
259 1 5 -0.57 3.264139893112648 2.50150262265319 20.328230714305025 0 0 0
886 193 8 0.4238 0.5919782443421483 0.11608147905719797 22.33765808491815 2 0 0
55 1 2 0.18 7.044912898965529 1.7362937368221711 17.58480976269439 0 0 0
161 1 1 0 1.6460759156740532 8.678588879052166 18.250348618794295 1 0 0
20 1 2 0.18 0.9047394688167754 3.9991881526679953 18.867846165872805 1 0 0
200 1 4 -0.36 0.2939434837615034 4.114155623144321 20.179082217822256 1 0 0
1440 378 8 0.4238 2.771063875071555 8.587967025977319 24.55325692478877 -2 -2 0
1775 490 7 -0.8476 0.01741250857925683 1.294091117021752 25.37472415773248 1 2 0
1439 378 7 -0.8476 2.8911877757589712 9.266819829235075 23.82887465580476 -2 -2 0
262 1 5 -0.57 1.6870910519472904 7.541421952613686 20.48907464749513 1 0 0
967 220 8 0.4238 2.159495970881712 5.840127839122277 22.064455998931706 -1 2 0
486 60 8 0.4238 8.584921281080408 9.546877428445207 22.731959981197534 2 0 0
129 1 3 0.18 3.354536489545601 2.23868548273789 18.930595267690716 0 0 0
833 176 7 -0.8476 2.0902881571890637 0.006291271357445294 23.351078871526646 1 -1 0
939 211 8 0.4238 9.700542681928047 1.3919228641137404 24.12101799638105 -2 4 0
1446 380 8 0.4238 6.988062513156379 6.7194901720247255 20.39436043928915 0 1 0
265 1 5 -0.57 -0.31651677595366773 9.488877251750035 19.674106629051053 1 0 0
131 1 3 0.18 1.2641782572684501 7.177655331707739 19.164378342923076 1 0 0
260 1 5 -0.57 5.27122967881655 4.425588252349029 19.09865968025999 0 0 0
835 176 8 0.4238 2.0960789993795883 0.2600248064723568 24.318335729412304 1 -1 0
1557 417 8 0.4238 8.352773007366805 6.4732802594754215 24.826725742880516 0 2 0
1610 435 7 -0.8476 2.3301108825907164 5.05153884961232 25.305385841343018 -1 -1 0
288 1 6 0.39 3.594282596113186 0.434011185508538 20.6149758003385 0 0 0
1138 277 8 0.4238 7.671056779493329 4.032834873379712 25.315335863180675 1 0 0
21 1 2 0.18 0.9453496382793173 2.54543103206239 18.45302169717323 1 0 0
405 33 8 0.4238 6.513332595357672 9.181669730630404 19.506335373008078 -1 -2 0
965 220 7 -0.8476 1.3723313409707092 5.615050085212085 22.638663400747816 -1 2 0
561 85 8 0.4238 0.2497656228687364 6.455175300719756 24.022302564002334 2 -1 0
1014 236 8 0.4238 3.324663854664584 6.830440057764612 25.79289753295224 1 0 0
562 85 8 0.4238 -0.030588422606514773 7.967098106763765 23.842796076928416 2 -1 0
966 220 8 0.4238 0.8227934266394552 5.0613651629655285 22.0130097357548 -1 2 0
480 58 8 0.4238 6.440206770624354 2.7777756324228777 21.82523295339507 1 -2 0
1469 388 7 -0.8476 0.3270623494009795 8.89759844360777 22.200714705659422 -1 1 0
1397 364 7 -0.8476 3.256583848779398 2.9141902157851756 23.549717886874035 2 0 0
54 1 2 0.18 5.7155055544219096 2.337701304650582 17.905127479253515 0 0 0
479 58 7 -0.8476 5.712341688941625 2.934587140089842 22.492784077806796 1 -2 0
104 1 3 0.18 4.70091955414301 0.09254598552491039 18.988311892769904 0 0 0
1398 364 8 0.4238 4.171898267439104 3.011094558904897 23.158805994363558 2 0 0
1612 435 8 0.4238 3.069542361283713 4.450520788702163 25.002036635851876 -1 -1 0
487 60 8 0.4238 8.899265085642115 7.977442152792232 23.099475199717034 2 0 0
1470 388 8 0.4238 -0.22904032003826424 9.315830493960178 21.482499508162416 -1 1 0
902 199 7 -0.8476 8.869892163757939 0.6425595403291579 22.69138507743467 -1 3 0
938 211 7 -0.8476 10.206167639387143 2.1540325172230723 24.525411158734762 -2 4 0
1569 421 8 0.4238 9.554954802710867 7.335479857158166 19.852589063185686 0 1 0
305 1 6 0.39 -0.5221387085133596 10.428848108733373 19.697346235082087 1 0 0
318 4 8 0.4238 4.431282831992591 1.0116860765655555 25.295887615351166 -1 1 0
187 1 4 -0.36 10.456347649808622 2.325058631094335 18.293290941467404 0 0 0
1312 335 8 0.4238 5.878839249206881 -0.05191474618374515 21.581913911550743 -3 2 0
791 162 7 -0.8476 3.1532092648338463 1.9979623906867467 26.047677082886516 -1 3 0
1551 415 8 0.4238 10.219214673226737 0.13858954142422247 21.8879248114269 0 1 0
777 157 8 0.4238 10.489766628305501 5.491696783745015 21.083672588812803 -1 2 0
1570 421 8 0.4238 9.473486414630498 7.682637654786872 21.42942025497953 0 1 0
776 157 7 -0.8476 10.417634009735593 4.4945332889720255 21.10518898595299 -1 2 0
1695 463 8 0.4238 1.020568033174632 4.135102601152361 26.094263648981066 -1 0 0
69 1 2 0.18 2.356176647015052 0.43602423527554046 17.563982763001988 1 0 0
1015 236 8 0.4238 4.143613695069539 8.195598885896166 26.197428770689037 1 0 0
1590 428 8 0.4238 4.204319740691419 -0.4096973852132842 34.346213636873564 4 1 0
555 83 8 0.4238 9.108653900214414 7.425936105351643 32.324602071425396 0 1 0
1650 448 8 0.4238 5.453794422057277 6.602398716229546 28.400232813380036 0 -1 0
1651 448 8 0.4238 6.7324201895472795 5.903290723076665 29.099156002275784 0 -1 0
1839 511 8 0.4238 5.210125683836748 4.374776027473097 27.530727417248695 1 -1 0
1338 344 8 0.4238 4.60802457888534 3.042435788465849 33.04581854487337 -2 0 0
482 59 7 -0.8476 -0.12048059007676476 0.735229210226757 33.74299587194583 1 1 0
528 74 8 0.4238 8.229854952656263 6.576944936203557 30.403206243036657 0 1 0
669 121 8 0.4238 1.2642271660223794 5.700594342999516 29.427302627842398 -1 3 0
1705 466 8 0.4238 5.556925731275463 2.594112586894833 30.43012120413752 -2 1 0
529 74 8 0.4238 9.530174155180452 6.953407427223505 29.430366611110536 0 1 0
942 212 8 0.4238 8.050096088980242 3.259172317957178 27.606533557387507 0 -1 0
943 212 8 0.4238 7.208811279811063 3.1464088229185894 29.02473231587386 0 -1 0
720 138 8 0.4238 7.42440625101593 1.0941344447857362 27.483213723070833 2 1 0
462 52 8 0.4238 3.5613026802170094 9.79230218011932 32.615726768645814 1 -1 0
1713 469 8 0.4238 1.3854000689792396 2.916851737850651 30.05557626425903 -1 1 0
1061 252 7 -0.8476 7.132893612802266 -0.09989280559082783 31.5364168051618 0 0 0
613 102 8 0.4238 1.1984035353648355 7.267189387894493 32.89657520297203 2 1 0
1278 324 8 0.4238 9.527620356028251 4.93037685570883 31.800150407572374 0 -1 0
1069 254 8 0.4238 -0.1847314696602239 7.9702945972315 28.297547216322307 1 0 0
1800 498 8 0.4238 4.366880849573079 0.5283424535375928 29.5280739014978 1 1 0
1173 289 8 0.4238 6.362102077482578 8.579364324088164 34.48728909052817 0 0 0
827 174 7 -0.8476 1.2601000077047353 8.51147897158789 27.636734131003756 2 -1 0
1315 336 8 0.4238 9.634243469198344 7.658623176853278 34.19939366235407 -1 1 0
1063 252 8 0.4238 7.256552011526499 0.8079381477260219 31.135726742177344 0 0 0
1076 257 7 -0.8476 7.340761197073872 7.559043141981711 31.57890285274134 2 -1 0
484 59 8 0.4238 -0.231139003703314 0.5885152118702085 32.76002598374276 1 1 0
1384 359 8 0.4238 3.321033232148139 7.391669614965485 29.061660564067456 -2 -1 0
1426 373 8 0.4238 2.370339424133955 2.6975154766753753 34.38055534855137 1 0 0
577 90 8 0.4238 5.666114026627388 0.10036205644429547 32.55163662089941 2 3 0
1279 324 8 0.4238 9.358513541197013 4.853407355059984 33.48378989700889 0 -1 0
1068 254 8 0.4238 -0.6480827734035124 6.659597590563788 29.005736326339747 1 0 0
1755 483 8 0.4238 9.939575367439229 4.660636802845254 29.626036073829827 0 -1 0
1671 455 8 0.4238 1.9271870453006055 4.952803544616671 33.376896084436886 0 1 0
556 83 8 0.4238 10.311362463387947 8.507575023993471 32.056618678319104 0 1 0
1754 483 7 -0.8476 10.426838528159195 3.8217233069259993 29.86852400378935 0 -1 0
793 162 8 0.4238 3.915294759760515 2.5135756348646443 26.439303267215948 -1 3 0
461 52 7 -0.8476 3.3130520164830997 9.334569022140231 31.76199822931803 1 -1 0
1703 466 7 -0.8476 4.8053602967207585 1.9363209530384822 30.47974054653328 -2 1 0
527 74 7 -0.8476 8.872388025244248 6.253464641812257 29.708574420338117 0 1 0
314 3 7 -0.8476 10.112918037934415 1.3066202107325509 30.810235440124742 2 0 0
1649 448 7 -0.8476 6.315579470983015 6.128760668322651 28.218583580007476 0 -1 0
941 212 7 -0.8476 7.493861518685762 2.6702488484319526 28.192855774880947 0 -1 0
722 139 7 -0.8476 6.385083474071744 9.986877770101676 33.527405053088046 -1 0 0
724 139 8 0.4238 6.454722647774834 9.959472557743124 32.53020930491481 -1 0 0
950 215 7 -0.8476 5.453055500056699 8.855729839525283 26.76758278643004 -1 0 0
575 90 7 -0.8476 4.67535410901039 0.11108909746272878 32.686852204768606 2 3 0
1366 353 8 0.4238 7.986379200980073 6.866280940668855 27.028639695889524 2 2 0
668 121 7 -0.8476 1.76262290832668 6.532044717503461 29.6728502003479 -1 3 0
1001 232 7 -0.8476 2.3527756120099306 -0.45671955102465345 27.204652095045958 0 2 0
719 138 7 -0.8476 7.447558586519797 0.45976615917430913 26.710529250877464 2 1 0
1365 353 8 0.4238 8.515143741075967 8.446745863697382 26.964549541968104 2 2 0
1078 257 8 0.4238 7.045450489136122 8.429175313779197 31.184361688207137 2 -1 0
977 224 7 -0.8476 8.368774889632139 9.645708516951784 28.58956404992682 -1 0 0
1704 466 8 0.4238 3.9697755204382363 2.480336449531968 30.403267950651472 -2 1 0
1694 463 7 -0.8476 0.3721937611668933 3.595520100143243 26.6313515018456 -1 0 0
1077 257 8 0.4238 6.583521368080608 7.326886084386012 32.18938876828802 2 -1 0
744 146 8 0.4238 6.7528850685901 3.7690055096681006 31.828229368795753 -2 0 0
1216 303 8 0.4238 3.512820971565524 6.533226077657632 33.348431284370136 0 2 0
554 83 7 -0.8476 10.010170232129491 7.739964730492261 32.6223559379034 0 1 0
1514 403 7 -0.8476 -0.6522526527290203 0.3497971136804794 31.115367814327044 2 2 0
828 174 8 0.4238 1.811732831080726 8.362368230641136 26.81608295151751 2 -1 0
1080 258 8 0.4238 3.4749931628614457 10.174162736069714 34.56954968337491 -1 0 0
1272 322 8 0.4238 6.994092168332686 2.5329253011465034 34.59353166092204 -2 3 0
1714 469 8 0.4238 2.016809010653005 3.5104787852168036 31.376066375754466 -1 1 0
1672 455 8 0.4238 0.6572757765629507 4.055912741315361 33.63601439019864 0 1 0
463 52 8 0.4238 3.32036891329285 10.071686285342349 31.0862725475888 1 -1 0
1840 511 8 0.4238 5.924783835998598 2.9223619691265585 27.38033720351315 1 -1 0
1799 498 7 -0.8476 4.18990806993072 -0.3256567544643502 29.038822536796438 1 1 0
1838 511 7 -0.8476 5.178615216385393 3.49940892650735 27.0482956936131 1 -1 0
951 215 8 0.4238 6.230760311745167 8.268160569828847 26.544109920547125 -1 0 0
1382 359 7 -0.8476 4.2884025711245854 7.507279835787175 28.83619609281713 -2 -1 0
1670 455 7 -0.8476 1.6063288888132305 4.007115248214679 33.32469422691383 0 1 0
315 3 8 0.4238 10.015341925210098 2.293585152827906 30.682250238330376 2 0 0
670 121 8 0.4238 1.6101707761949733 6.61336485604069 30.657809829596037 -1 3 0
632 109 7 -0.8476 10.42308012262943 2.2478036134349693 34.59916828804808 0 0 0
1712 469 7 -0.8476 2.2564229012572725 3.2022198754018856 30.45543509518778 -1 1 0
365 20 7 -0.8476 6.1724809623901695 10.048907059790931 30.838770482432565 -1 1 0
1277 324 7 -0.8476 8.935227615449532 4.7453343958309375 32.58426227095051 0 -1 0
1043 246 7 -0.8476 -0.36847720131289163 7.587979080790236 33.356841273941775 -1 0 0
868 187 8 0.4238 0.010047263452922851 4.536695871240881 27.961630157946654 2 -1 0
866 187 7 -0.8476 -0.20951716535201348 4.859380082093617 28.882318297204993 2 -1 0
1383 359 8 0.4238 4.372105994630081 8.168074682053764 28.090311109737613 -2 -1 0
611 102 7 -0.8476 2.1391020838086816 7.155053087056013 32.57639574580184 2 1 0
1273 322 8 0.4238 8.52431922212585 2.090192676949737 34.83855228245683 -2 3 0
1337 344 7 -0.8476 5.448824136354153 3.47179558567335 33.37552903557295 -2 0 0
1214 303 7 -0.8476 4.208867992545823 6.097368270141196 33.918999834596974 0 2 0
829 174 8 0.4238 1.6398813071695184 7.931449622477892 28.35738175344553 2 -1 0
612 102 8 0.4238 2.450050284328539 8.08259203816317 32.36906991114136 2 1 0
1339 344 8 0.4238 5.26254178159714 4.411239627183555 33.66318311191966 -2 0 0
703 132 8 0.4238 0.8119650651572282 10.25532532576721 27.93526685093431 0 2 0
576 90 8 0.4238 4.431140980505803 0.843795275186993 32.051633810421734 2 3 0
1003 232 8 0.4238 3.094251273689753 -0.2963137015451883 27.856177873111562 0 2 0
745 146 8 0.4238 8.014410398429908 3.667219676994378 30.90238469331411 -2 0 0
743 146 7 -0.8476 7.042796638841832 3.4325349827386327 30.932272173244787 -2 0 0
660 118 8 0.4238 9.884032763453448 0.35890372270627163 32.87833771005151 -2 -1 0
979 224 8 0.4238 7.514801479217547 9.169892834288833 28.37901305202073 -1 0 0
706 133 8 0.4238 9.578831986564545 9.732282643033814 30.071915316876524 -1 0 0
366 20 8 0.4238 5.36748182504384 9.61896131772793 30.429960499715317 -1 1 0
1215 303 8 0.4238 3.708650107963957 6.064760495349517 34.78428575785883 0 2 0
704 133 7 -0.8476 10.283288591252575 9.732659304446779 30.781663532494164 -1 0 0
1174 289 8 0.4238 5.49123321520518 7.274111707692444 34.72718520642767 0 0 0
1002 232 8 0.4238 2.1985497440592927 0.42189792038670454 26.752715541031364 0 2 0
961 218 8 0.4238 9.67513835949783 4.434491213267149 26.722369536493723 2 0 0
1515 403 8 0.4238 -0.2294838245117393 -0.24192474494947944 30.428976685013755 2 2 0
633 109 8 0.4238 10.466416578907307 3.199508554418225 34.9031101432618 0 0 0
723 139 8 0.4238 5.496132042393444 10.385789533693803 33.75243343262542 -1 0 0
1364 353 7 -0.8476 8.061015371707551 7.699049423810235 26.480071676350935 2 2 0
1342 345 8 0.4238 0.9708546949272493 -0.4938524645752041 28.316290259535254 0 1 0
952 215 8 0.4238 5.682883126810196 9.745189932495126 26.372562459032547 -1 0 0
1062 252 8 0.4238 8.024781584807279 -0.4039623021875815 31.871201140578975 0 0 0
1425 373 8 0.4238 1.644245373974943 1.2531134981261876 34.68380265221846 1 0 0
1424 373 7 -0.8476 2.4203004137838464 1.845155887295261 34.90112026386836 1 0 0
659 118 7 -0.8476 9.549466750705882 -0.5814072547921683 32.94064515178898 -2 -1 0
959 218 7 -0.8476 8.946273175890653 3.876384772033491 26.325790423366424 2 0 0
1696 463 8 0.4238 0.459724667899834 2.642534654484339 26.341251339287844 -1 0 0
880 191 8 0.4238 0.12970517068653764 7.03397081478416 34.96534586231984 1 -1 0
1810 501 8 0.4238 6.921137575676238 3.651200108164277 36.681766706323714 -1 1 0
684 126 8 0.4238 4.303919819032414 2.6760185014806432 37.97427632380367 -1 -1 0
1202 299 7 -0.8476 2.7344866706370072 0.18365006280156898 38.31412869555705 -1 2 0
334 9 8 0.4238 6.441760112939797 7.177998902991931 36.815564368041485 1 2 0
1285 326 8 0.4238 1.7903554961722343 6.096537644276675 36.01150447253562 -1 1 0
679 124 8 0.4238 3.1382862274690875 7.667853625146957 38.56646853906447 0 -1 0
1314 336 8 0.4238 8.354784865867792 7.854963469124514 35.07546537345975 -1 1 0
639 111 8 0.4238 5.1803531721778535 8.204429549835314 39.85239150202078 -1 1 0
1113 269 8 0.4238 2.5432695179684712 7.9992759720035345 35.254102058523564 1 -2 0
1666 453 8 0.4238 6.742190335095217 6.101895803436674 42.24225217292372 1 0 0
1461 385 8 0.4238 1.9380233984305912 10.363723164974264 42.400570681683156 1 -1 0
878 191 7 -0.8476 0.2651227390392125 6.790349981442015 35.925716160724534 1 -1 0
1114 269 8 0.4238 3.025916368097631 8.760066800269403 36.52697408316301 1 -2 0
588 94 8 0.4238 0.0629808426795899 5.966963394207254 39.568708285641634 2 1 0
581 92 7 -0.8476 5.507860359635795 3.037524528868785 41.278267362164975 0 0 0
1665 453 8 0.4238 7.1972097373952195 7.671612566319336 42.27842563028583 1 0 0
1496 397 7 -0.8476 8.101792545432616 3.1717418716140346 41.715218722783796 0 1 0
995 230 7 -0.8476 4.960754823149777 5.669288841221376 42.18802697056465 -1 0 0
1460 385 7 -0.8476 1.1959821644290065 10.28968074135106 43.06682477095849 1 -1 0
911 202 7 -0.8476 1.4151956546494082 4.819640920599571 42.837402876086486 0 2 0
610 101 8 0.4238 10.325998494768296 1.7152732640247672 36.52170319977544 1 1 0
879 191 8 0.4238 -0.4372804755162399 6.10023197194875 36.09998369063147 1 -1 0
1141 278 8 0.4238 9.724447650317014 1.183515568468538 40.44504627085467 -1 3 0
1715 470 7 -0.8476 5.93805053130244 0.13173240939692304 36.68421663092152 1 2 0
1350 348 8 0.4238 5.0263045137207865 6.130806949602418 40.39697401103769 1 0 0
1271 322 7 -0.8476 7.581262322741537 1.9237038311556276 35.12652516393043 -2 3 0
1716 470 8 0.4238 5.187063583314623 -0.2757387548775567 36.16461285496754 1 2 0
731 142 7 -0.8476 5.883322943043108 0.11999842112113254 42.54408867997325 -3 1 0
387 27 8 0.4238 7.261164171994821 9.986200261669804 42.4719371642831 1 1 0
771 155 8 0.4238 8.847710987237345 6.029674376063263 41.14913487509825 0 0 0
608 101 7 -0.8476 9.857814826447433 1.4150431420186618 37.35276686053503 1 1 0
1498 397 8 0.4238 7.171551709127339 3.404441219706449 41.43148262623484 0 1 0
493 62 8 0.4238 7.1304595238980095 0.9682056650247841 43.384559272446864 1 1 0
997 230 8 0.4238 4.050832622056624 5.732613221072447 42.59794718797684 -1 0 0
1482 392 8 0.4238 2.761989743166092 5.463925628135485 39.81799854192809 0 4 0
1204 299 8 0.4238 2.605886065123875 1.0915323418769056 38.71314324418719 -1 2 0
1203 299 8 0.4238 3.082635177411286 0.31362176528147 37.38574276527968 -1 2 0
1717 470 8 0.4238 6.461681183927296 0.7544994248243148 36.10286164913432 1 2 0
1230 308 8 0.4238 2.255866026706334 2.0665644644541787 42.03765940565307 0 2 0
501 65 8 0.4238 1.0239561199093978 3.2596010874932766 39.32039547210927 0 0 0
1304 333 7 -0.8476 -0.36407964449877755 6.7702276174409795 42.41558704303485 -1 3 0
772 155 8 0.4238 9.910353168884411 6.211454787825853 39.92081694633731 0 0 0
388 27 8 0.4238 6.0729847738784635 9.276512495792012 41.73211082525419 1 1 0
677 124 7 -0.8476 2.796619249309146 8.588507141775972 38.37762435252954 0 -1 0
1196 297 7 -0.8476 0.12003252477622531 8.682758425540316 40.39833228689198 0 0 0
993 229 8 0.4238 10.30818208659229 8.337188612864043 36.44114893503091 -1 -2 0
1641 445 8 0.4238 3.028895450584469 2.694183819071176 36.42629626181332 2 -1 0
502 65 8 0.4238 0.028930662789903916 2.1118348952716732 38.674460382847684 0 0 0
1112 269 7 -0.8476 2.7731997215074378 8.918904888056815 35.57256064351264 1 -2 0
1506 400 8 0.4238 8.805541235170068 -0.12312622391697894 35.95552262301437 1 1 0
1814 503 7 -0.8476 8.185480602830946 8.71170298850722 38.7129509633366 0 -1 0
996 230 8 0.4238 4.9845853505829005 4.736340754174848 41.82880430313375 -1 0 0
1172 289 7 -0.8476 6.224923066493078 7.823320670059162 35.12727394517982 0 0 0
1664 453 7 -0.8476 7.513816591221463 6.726698664064722 42.361486774379415 1 0 0
1231 308 8 0.4238 1.3307727075632987 2.16259676790305 40.68487176072271 0 2 0
1283 326 7 -0.8476 2.7767280507927543 5.940108045619476 36.06251912242335 -1 1 0
1497 397 8 0.4238 8.70742997547536 3.6708571822294114 41.095469733789756 0 1 0
1197 297 8 0.4238 0.21736706702185515 8.566615563275397 41.38678404152401 0 0 0
1481 392 7 -0.8476 1.7812427773649535 5.571808838293351 39.98078698227925 0 4 0
386 27 7 -0.8476 6.5149975244298775 9.338739058237003 42.62695902401761 1 1 0
1284 326 8 0.4238 2.9693393944668984 5.164745666900699 36.6639464566631 -1 1 0
678 124 8 0.4238 2.179665925822432 8.886878699697242 39.10587188467504 0 -1 0
1767 487 8 0.4238 0.6187407617398316 10.158801581266772 39.92603225643817 0 0 0
1139 278 7 -0.8476 8.922013962710384 0.6481420920396005 40.18145938356373 -1 3 0
1809 501 8 0.4238 8.461406732292826 3.756841898653295 37.04798440656903 -1 1 0
1018 237 8 0.4238 2.9698330669561748 -0.0055062792687731125 42.49038513948385 2 0 0
1313 336 7 -0.8476 9.348786200203916 7.7754973940694745 35.15063226010239 -1 1 0
609 101 8 0.4238 10.008414227414182 2.20058234771854 37.95297409818064 1 1 0
1598 431 7 -0.8476 10.351329064064634 3.790817111967271 38.316312488654816 -1 0 0
1600 431 8 0.4238 9.907167103268618 4.452342901089565 38.92055165844891 -1 0 0
1533 409 8 0.4238 9.689543202755823 9.758401332623436 39.68257179127887 1 -2 0
500 65 7 -0.8476 0.9754437309844942 2.412905099601754 38.79053393290151 0 0 0
640 111 8 0.4238 4.838788561911313 9.550553046638306 39.056451969157514 -1 1 0
1640 445 7 -0.8476 2.930168396456929 3.2878425933025723 37.224934256531036 2 -1 0
683 126 7 -0.8476 4.917302962265402 2.1083558316273483 38.52338645802866 -1 -1 0
1808 501 7 -0.8476 7.574685170774764 4.18764871450005 37.21571452453286 -1 1 0
1140 278 8 0.4238 8.180025861800901 1.2383978389024404 40.49934957733342 -1 3 0
333 9 8 0.4238 6.9007355975389 5.751131492389208 37.43621210329459 1 2 0
1349 348 7 -0.8476 4.680892921336273 6.332499238086716 39.48045257910975 1 0 0
1816 503 8 0.4238 7.362279910694526 9.099479094564359 39.1276471498606 0 -1 0
1229 308 7 -0.8476 1.5937804062366272 2.6212299569911055 41.53368447596294 0 2 0
332 9 7 -0.8476 6.564956019505064 6.664868371633241 37.66498779968173 1 2 0
582 92 8 0.4238 5.292766246280211 2.575032630480021 40.418130059458754 0 0 0
1642 445 8 0.4238 2.053173138510806 3.0971892352151955 37.665993686318345 2 -1 0
1016 237 7 -0.8476 3.370550482633901 0.8480474088302327 42.823361154169184 2 0 0
732 142 8 0.4238 4.939854022758372 0.3454942088392107 42.78703168740041 -3 1 0
913 202 8 0.4238 1.3741118970154906 3.9259377011091634 42.3906282426487 0 2 0
685 126 8 0.4238 5.371536703202938 1.4820678841368071 37.88979644666772 -1 -1 0
770 155 7 -0.8476 9.315711646437688 5.564291031061545 40.39787276457499 0 0 0
583 92 8 0.4238 5.575655267992483 2.2657661428485016 41.910559630011186 0 0 0
1815 503 8 0.4238 7.955162931428529 7.761824062774678 38.50156276209062 0 -1 0
1306 333 8 0.4238 0.1922120896646231 6.010051044714621 42.75125477425944 -1 3 0
1198 297 8 0.4238 -0.2006879750800976 7.792860270752267 40.0739546250534 0 0 0
1359 351 8 0.4238 8.40857342868368 6.700597786454187 43.74169106993505 -1 -1 0
1483 392 8 0.4238 1.6178224915930783 5.746596872964289 40.951736562149925 0 4 0
638 111 7 -0.8476 5.294983491566187 9.197617210177643 39.87335059244966 -1 1 0
912 202 8 0.4238 1.8990395052914586 4.794706219353226 43.71220242230697 0 2 0
492 62 8 0.4238 8.054089182520887 2.195513899384001 43.204985853481084 1 1 0