2
# CELL(abcABC):  188.97261   188.97261   188.97261    90.00000    90.00000    90.00000  Step:           0  Bead:       0 x_centroid{angstrom}  cell{atomic_unit}
       O  9.69600e-01  0.00000e+00  0.00000e+00
       H  0.00000e+00  0.00000e+00  0.00000e+00
2
# CELL(abcABC):  188.97261   188.97261   188.97261    90.00000    90.00000    90.00000  Step:         200  Bead:       0 x_centroid{angstrom}  cell{atomic_unit}
       O  9.09221e-01  4.05500e-02  4.51048e-02
       H  5.26298e-02  1.15976e-01 -6.96382e-02
2
# CELL(abcABC):  188.97261   188.97261   188.97261    90.00000    90.00000    90.00000  Step:         400  Bead:       0 x_centroid{angstrom}  cell{atomic_unit}
       O  9.05315e-01  1.16137e-01 -5.47534e-02
       H  1.54747e-02  2.84262e-01 -3.15476e-01
2
# CELL(abcABC):  188.97261   188.97261   188.97261    90.00000    90.00000    90.00000  Step:         600  Bead:       0 x_centroid{angstrom}  cell{atomic_unit}
       O  8.95511e-01  1.71734e-01 -1.05429e-01
       H -1.65300e-02  6.09898e-02 -1.02470e-01
2
# CELL(abcABC):  188.97261   188.97261   188.97261    90.00000    90.00000    90.00000  Step:         800  Bead:       0 x_centroid{angstrom}  cell{atomic_unit}
       O  8.78300e-01  2.28218e-01 -7.78798e-02
       H  1.25044e-01 -2.66413e-01 -3.29661e-01
2
# CELL(abcABC):  188.97261   188.97261   188.97261    90.00000    90.00000    90.00000  Step:        1000  Bead:       0 x_centroid{angstrom}  cell{atomic_unit}
       O  8.47082e-01  1.83958e-01 -8.01606e-03
       H  2.80135e-01 -4.85802e-01 -3.68442e-01
2
# CELL(abcABC):  188.97261   188.97261   188.97261    90.00000    90.00000    90.00000  Step:        1200  Bead:       0 x_centroid{angstrom}  cell{atomic_unit}
       O  9.01559e-01  9.56635e-02  6.45878e-02
       H  4.40953e-01 -5.02667e-01 -5.52168e-01
2
# CELL(abcABC):  188.97261   188.97261   188.97261    90.00000    90.00000    90.00000  Step:        1400  Bead:       0 x_centroid{angstrom}  cell{atomic_unit}
       O  9.05985e-01 -3.98797e-02 -4.89126e-02
       H  5.50345e-01 -2.71271e-01 -7.99676e-01
2
# CELL(abcABC):  188.97261   188.97261   188.97261    90.00000    90.00000    90.00000  Step:        1600  Bead:       0 x_centroid{angstrom}  cell{atomic_unit}
       O  8.51279e-01 -6.88777e-02 -9.56093e-02
       H  9.33652e-01 -2.62933e-01 -9.83268e-01
2
# CELL(abcABC):  188.97261   188.97261   188.97261    90.00000    90.00000    90.00000  Step:        1800  Bead:       0 x_centroid{angstrom}  cell{atomic_unit}
       O  8.07079e-01 -3.14544e-02 -1.64764e-01
       H  1.31927e+00 -4.33707e-02 -9.34982e-01
2
# CELL(abcABC):  188.97261   188.97261   188.97261    90.00000    90.00000    90.00000  Step:        2000  Bead:       0 x_centroid{angstrom}  cell{atomic_unit}
       O  7.43922e-01 -1.61413e-01 -2.48955e-01
       H  1.51888e+00 -5.51423e-03 -7.30644e-01
2
# CELL(abcABC):  188.97261   188.97261   188.97261    90.00000    90.00000    90.00000  Step:        2200  Bead:       0 x_centroid{angstrom}  cell{atomic_unit}
       O  7.20289e-01 -1.81934e-01 -2.49235e-01
       H  1.47580e+00 -1.31577e-01 -8.38314e-01
2
# CELL(abcABC):  188.97261   188.97261   188.97261    90.00000    90.00000    90.00000  Step:        2400  Bead:       0 x_centroid{angstrom}  cell{atomic_unit}
       O  7.00600e-01 -1.52114e-01 -2.52552e-01
       H  1.37715e+00  2.54526e-01 -8.13356e-01
2
# CELL(abcABC):  188.97261   188.97261   188.97261    90.00000    90.00000    90.00000  Step:        2600  Bead:       0 x_centroid{angstrom}  cell{atomic_unit}
       O  7.32937e-01 -7.51284e-02 -3.58927e-01
       H  1.05995e+00  3.70099e-01 -1.12379e+00
2
# CELL(abcABC):  188.97261   188.97261   188.97261    90.00000    90.00000    90.00000  Step:        2800  Bead:       0 x_centroid{angstrom}  cell{atomic_unit}
       O  6.48741e-01 -6.80212e-02 -2.28210e-01
       H  9.66062e-01  3.44538e-01 -1.00896e+00
2
# CELL(abcABC):  188.97261   188.97261   188.97261    90.00000    90.00000    90.00000  Step:        3000  Bead:       0 x_centroid{angstrom}  cell{atomic_unit}
       O  6.47989e-01 -1.27465e-01 -2.68861e-01
       H  1.10098e+00  2.88462e-01 -1.04286e+00
2
# CELL(abcABC):  188.97261   188.97261   188.97261    90.00000    90.00000    90.00000  Step:        3200  Bead:       0 x_centroid{angstrom}  cell{atomic_unit}
       O  6.34604e-01 -1.87503e-01 -2.59207e-01
       H  1.03430e+00  1.20561e-01 -1.03017e+00
2
# CELL(abcABC):  188.97261   188.97261   188.97261    90.00000    90.00000    90.00000  Step:        3400  Bead:       0 x_centroid{angstrom}  cell{atomic_unit}
       O  6.63130e-01 -1.18396e-01 -2.58314e-01
       H  1.00959e+00  2.30656e-01 -1.03053e+00
2
# CELL(abcABC):  188.97261   188.97261   188.97261    90.00000    90.00000    90.00000  Step:        3600  Bead:       0 x_centroid{angstrom}  cell{atomic_unit}
       O  6.80488e-01 -1.18952e-01 -3.08940e-01
       H  1.02864e+00  4.67697e-01 -9.89129e-01
2
# CELL(abcABC):  188.97261   188.97261   188.97261    90.00000    90.00000    90.00000  Step:        3800  Bead:       0 x_centroid{angstrom}  cell{atomic_unit}
       O  6.29024e-01 -1.19796e-01 -3.75135e-01
       H  8.54194e-01  3.06261e-01 -1.19296e+00
2
# CELL(abcABC):  188.97261   188.97261   188.97261    90.00000    90.00000    90.00000  Step:        4000  Bead:       0 x_centroid{angstrom}  cell{atomic_unit}
       O  7.05295e-01 -1.03297e-01 -4.08521e-01
       H  9.98989e-01  2.22686e-01 -1.14592e+00
2
# CELL(abcABC):  188.97261   188.97261   188.97261    90.00000    90.00000    90.00000  Step:        4200  Bead:       0 x_centroid{angstrom}  cell{atomic_unit}
       O  7.95201e-01 -8.86177e-02 -4.70974e-01
       H  6.77515e-01 -8.29972e-02 -1.46864e+00
2
# CELL(abcABC):  188.97261   188.97261   188.97261    90.00000    90.00000    90.00000  Step:        4400  Bead:       0 x_centroid{angstrom}  cell{atomic_unit}
       O  7.40547e-01 -2.23167e-02 -5.02670e-01
       H  7.84791e-01 -2.15524e-01 -1.42161e+00
2
# CELL(abcABC):  188.97261   188.97261   188.97261    90.00000    90.00000    90.00000  Step:        4600  Bead:       0 x_centroid{angstrom}  cell{atomic_unit}
       O  7.24239e-01  1.18545e-02 -5.37116e-01
       H  8.10033e-01 -1.10679e-01 -1.47802e+00
2
# CELL(abcABC):  188.97261   188.97261   188.97261    90.00000    90.00000    90.00000  Step:        4800  Bead:       0 x_centroid{angstrom}  cell{atomic_unit}
       O  6.89180e-01 -5.09209e-02 -5.28502e-01
       H  6.70708e-01  8.79836e-02 -1.48181e+00
2
# CELL(abcABC):  188.97261   188.97261   188.97261    90.00000    90.00000    90.00000  Step:        5000  Bead:       0 x_centroid{angstrom}  cell{atomic_unit}
       O  6.55829e-01 -1.96039e-01 -5.05385e-01
       H  9.23707e-01  1.53192e-01 -1.32096e+00
2
# CELL(abcABC):  188.97261   188.97261   188.97261    90.00000    90.00000    90.00000  Step:        5200  Bead:       0 x_centroid{angstrom}  cell{atomic_unit}
       O  8.30398e-01 -2.08952e-01 -4.88492e-01
       H  8.37187e-01  2.07934e-01 -1.33591e+00
2
# CELL(abcABC):  188.97261   188.97261   188.97261    90.00000    90.00000    90.00000  Step:        5400  Bead:       0 x_centroid{angstrom}  cell{atomic_unit}
       O  7.64991e-01 -2.42403e-01 -6.30854e-01
       H  1.19640e+00 -9.30195e-02 -1.48184e+00
2
# CELL(abcABC):  188.97261   188.97261   188.97261    90.00000    90.00000    90.00000  Step:        5600  Bead:       0 x_centroid{angstrom}  cell{atomic_unit}
       O  8.00631e-01 -3.07385e-01 -7.25452e-01
       H  7.43041e-01 -2.76508e-01 -1.62758e+00
2
# CELL(abcABC):  188.97261   188.97261   188.97261    90.00000    90.00000    90.00000  Step:        5800  Bead:       0 x_centroid{angstrom}  cell{atomic_unit}
       O  8.15935e-01 -2.20206e-01 -8.53589e-01
       H  5.44687e-01 -4.38664e-01 -1.76388e+00
2
# CELL(abcABC):  188.97261   188.97261   188.97261    90.00000    90.00000    90.00000  Step:        6000  Bead:       0 x_centroid{angstrom}  cell{atomic_unit}
       O  8.70932e-01 -2.80243e-01 -8.95731e-01
       H  3.34256e-01 -5.37024e-01 -1.57929e+00
2
# CELL(abcABC):  188.97261   188.97261   188.97261    90.00000    90.00000    90.00000  Step:        6200  Bead:       0 x_centroid{angstrom}  cell{atomic_unit}
       O  9.83420e-01 -2.69848e-01 -9.49021e-01
       H  4.13974e-01 -7.80022e-01 -1.50627e+00
2
# CELL(abcABC):  188.97261   188.97261   188.97261    90.00000    90.00000    90.00000  Step:        6400  Bead:       0 x_centroid{angstrom}  cell{atomic_unit}
       O  9.99362e-01 -3.49396e-01 -9.81985e-01
       H  3.19111e-01 -1.87175e-01 -1.63654e+00
2
# CELL(abcABC):  188.97261   188.97261   188.97261    90.00000    90.00000    90.00000  Step:        6600  Bead:       0 x_centroid{angstrom}  cell{atomic_unit}
       O  9.36885e-01 -3.01936e-01 -1.08496e+00
       H  1.95412e-01  2.22121e-02 -1.49210e+00
2
# CELL(abcABC):  188.97261   188.97261   188.97261    90.00000    90.00000    90.00000  Step:        6800  Bead:       0 x_centroid{angstrom}  cell{atomic_unit}
       O  9.51066e-01 -4.15510e-01 -1.07032e+00
       H  2.00465e-01  2.31390e-02 -1.33538e+00
2
# CELL(abcABC):  188.97261   188.97261   188.97261    90.00000    90.00000    90.00000  Step:        7000  Bead:       0 x_centroid{angstrom}  cell{atomic_unit}
       O  9.92167e-01 -3.75636e-01 -9.87963e-01
       H  9.77164e-02 -1.86153e-01 -1.21706e+00
2
# CELL(abcABC):  188.97261   188.97261   188.97261    90.00000    90.00000    90.00000  Step:        7200  Bead:       0 x_centroid{angstrom}  cell{atomic_unit}
       O  1.01786e+00 -3.83307e-01 -1.04305e+00
       H  9.49650e-02 -2.87857e-01 -9.39615e-01
2
# CELL(abcABC):  188.97261   188.97261   188.97261    90.00000    90.00000    90.00000  Step:        7400  Bead:       0 x_centroid{angstrom}  cell{atomic_unit}
       O  9.88404e-01 -3.59086e-01 -1.10206e+00
       H  1.26737e-01 -3.76301e-01 -7.82623e-01
2
# CELL(abcABC):  188.97261   188.97261   188.97261    90.00000    90.00000    90.00000  Step:        7600  Bead:       0 x_centroid{angstrom}  cell{atomic_unit}
       O  9.89010e-01 -2.68521e-01 -1.10558e+00
       H  1.00344e-01  1.41516e-02 -1.10539e+00
2
# CELL(abcABC):  188.97261   188.97261   188.97261    90.00000    90.00000    90.00000  Step:        7800  Bead:       0 x_centroid{angstrom}  cell{atomic_unit}
       O  1.04599e+00 -3.44265e-01 -1.08040e+00
       H  3.09596e-01  1.81632e-01 -1.16672e+00
2
# CELL(abcABC):  188.97261   188.97261   188.97261    90.00000    90.00000    90.00000  Step:        8000  Bead:       0 x_centroid{angstrom}  cell{atomic_unit}
       O  1.08892e+00 -3.83964e-01 -1.15820e+00
       H  4.88850e-01  3.33828e-01 -9.78394e-01
2
# CELL(abcABC):  188.97261   188.97261   188.97261    90.00000    90.00000    90.00000  Step:        8200  Bead:       0 x_centroid{angstrom}  cell{atomic_unit}
       O  1.01532e+00 -3.27295e-01 -1.10114e+00
       H  6.86316e-01  4.45595e-01 -7.97549e-01
2
# CELL(abcABC):  188.97261   188.97261   188.97261    90.00000    90.00000    90.00000  Step:        8400  Bead:       0 x_centroid{angstrom}  cell{atomic_unit}
       O  1.00461e+00 -2.92075e-01 -1.12224e+00
       H  8.12578e-01  6.30473e-01 -1.29577e+00
2
# CELL(abcABC):  188.97261   188.97261   188.97261    90.00000    90.00000    90.00000  Step:        8600  Bead:       0 x_centroid{angstrom}  cell{atomic_unit}
       O  9.84834e-01 -3.62495e-01 -1.07094e+00
       H  6.31561e-01  5.44360e-01 -1.16838e+00
2
# CELL(abcABC):  188.97261   188.97261   188.97261    90.00000    90.00000    90.00000  Step:        8800  Bead:       0 x_centroid{angstrom}  cell{atomic_unit}
       O  9.49067e-01 -2.24378e-01 -9.94103e-01
       H  7.98384e-01  6.07354e-01 -5.70779e-01
2
# CELL(abcABC):  188.97261   188.97261   188.97261    90.00000    90.00000    90.00000  Step:        9000  Bead:       0 x_centroid{angstrom}  cell{atomic_unit}
       O  9.54712e-01 -3.17154e-01 -9.58739e-01
       H  7.83142e-01  4.91778e-01 -4.88376e-01
2
# CELL(abcABC):  188.97261   188.97261   188.97261    90.00000    90.00000    90.00000  Step:        9200  Bead:       0 x_centroid{angstrom}  cell{atomic_unit}
       O  9.16984e-01 -3.27569e-01 -9.02780e-01
       H  4.99010e-01  5.08168e-01 -6.96586e-01
2
# CELL(abcABC):  188.97261   188.97261   188.97261    90.00000    90.00000    90.00000  Step:        9400  Bead:       0 x_centroid{angstrom}  cell{atomic_unit}
       O  8.21271e-01 -3.76824e-01 -9.01978e-01
       H  6.33551e-01  3.58165e-01 -3.81574e-01
2
# CELL(abcABC):  188.97261   188.97261   188.97261    90.00000    90.00000    90.00000  Step:        9600  Bead:       0 x_centroid{angstrom}  cell{atomic_unit}
       O  8.61430e-01 -4.11237e-01 -8.77656e-01
       H  8.21348e-01  1.23084e-01 -9.24641e-02
2
# CELL(abcABC):  188.97261   188.97261   188.97261    90.00000    90.00000    90.00000  Step:        9800  Bead:       0 x_centroid{angstrom}  cell{atomic_unit}
       O  8.07943e-01 -3.38621e-01 -8.37087e-01
       H  8.09944e-01  3.87237e-02  2.65876e-02
2
# CELL(abcABC):  188.97261   188.97261   188.97261    90.00000    90.00000    90.00000  Step:       10000  Bead:       0 x_centroid{angstrom}  cell{atomic_unit}
       O  8.35351e-01 -1.73899e-01 -8.75496e-01
       H  1.04830e+00  3.02163e-02  1.71913e-02
2
# CELL(abcABC):  188.97261   188.97261   188.97261    90.00000    90.00000    90.00000  Step:       10200  Bead:       0 x_centroid{angstrom}  cell{atomic_unit}
       O  8.08164e-01 -1.61315e-01 -8.69227e-01
       H  4.10612e-01  2.82934e-02 -3.70969e-02
2
# CELL(abcABC):  188.97261   188.97261   188.97261    90.00000    90.00000    90.00000  Step:       10400  Bead:       0 x_centroid{angstrom}  cell{atomic_unit}
       O  7.83356e-01 -2.83927e-01 -7.42384e-01
       H  7.40321e-01 -1.21343e-01  1.49983e-01
2
# CELL(abcABC):  188.97261   188.97261   188.97261    90.00000    90.00000    90.00000  Step:       10600  Bead:       0 x_centroid{angstrom}  cell{atomic_unit}
       O  8.31149e-01 -2.07042e-01 -7.94039e-01
       H  7.79938e-01 -2.36166e-01  1.77692e-01
2
# CELL(abcABC):  188.97261   188.97261   188.97261    90.00000    90.00000    90.00000  Step:       10800  Bead:       0 x_centroid{angstrom}  cell{atomic_unit}
       O  9.61075e-01 -1.65275e-01 -8.10574e-01
       H  1.19039e+00 -5.61882e-02  1.15871e-01
2
# CELL(abcABC):  188.97261   188.97261   188.97261    90.00000    90.00000    90.00000  Step:       11000  Bead:       0 x_centroid{angstrom}  cell{atomic_unit}
       O  9.92945e-01 -1.83632e-01 -9.26034e-01
       H  1.18130e+00 -2.93938e-01 -7.13732e-02
2
# CELL(abcABC):  188.97261   188.97261   188.97261    90.00000    90.00000    90.00000  Step:       11200  Bead:       0 x_centroid{angstrom}  cell{atomic_unit}
       O  1.01637e+00 -2.13459e-01 -1.01973e+00
       H  1.43654e+00 -4.37157e-01 -1.98828e-01
2
# CELL(abcABC):  188.97261   188.97261   188.97261    90.00000    90.00000    90.00000  Step:       11400  Bead:       0 x_centroid{angstrom}  cell{atomic_unit}
       O  9.94330e-01 -2.28598e-01 -9.95124e-01
       H  1.06637e+00 -6.65348e-01 -1.94572e-01
2
# CELL(abcABC):  188.97261   188.97261   188.97261    90.00000    90.00000    90.00000  Step:       11600  Bead:       0 x_centroid{angstrom}  cell{atomic_unit}
       O  1.04886e+00 -3.22574e-01 -9.23956e-01
       H  9.88058e-01 -7.42830e-01 -4.63060e-02
2
# CELL(abcABC):  188.97261   188.97261   188.97261    90.00000    90.00000    90.00000  Step:       11800  Bead:       0 x_centroid{angstrom}  cell{atomic_unit}
       O  1.07059e+00 -4.05089e-01 -9.62910e-01
       H  6.45146e-01 -7.44526e-01 -2.07356e-01
2
# CELL(abcABC):  188.97261   188.97261   188.97261    90.00000    90.00000    90.00000  Step:       12000  Bead:       0 x_centroid{angstrom}  cell{atomic_unit}
       O  1.09008e+00 -5.70033e-01 -1.04798e+00
       H  7.96439e-01 -8.91260e-01 -2.09867e-01
2
# CELL(abcABC):  188.97261   188.97261   188.97261    90.00000    90.00000    90.00000  Step:       12200  Bead:       0 x_centroid{angstrom}  cell{atomic_unit}
       O  1.20307e+00 -5.47354e-01 -1.18828e+00
       H  9.12130e-01 -9.71693e-01 -4.19646e-01
2
# CELL(abcABC):  188.97261   188.97261   188.97261    90.00000    90.00000    90.00000  Step:       12400  Bead:       0 x_centroid{angstrom}  cell{atomic_unit}
       O  1.22800e+00 -4.81612e-01 -1.18838e+00
       H  1.15301e+00 -1.26319e+00 -6.58540e-01
2
# CELL(abcABC):  188.97261   188.97261   188.97261    90.00000    90.00000    90.00000  Step:       12600  Bead:       0 x_centroid{angstrom}  cell{atomic_unit}
       O  1.13787e+00 -4.33379e-01 -1.19932e+00
       H  1.13213e+00 -1.31920e+00 -8.34738e-01
2
# CELL(abcABC):  188.97261   188.97261   188.97261    90.00000    90.00000    90.00000  Step:       12800  Bead:       0 x_centroid{angstrom}  cell{atomic_unit}
       O  1.15392e+00 -4.48057e-01 -1.14293e+00
       H  1.46927e+00 -1.26856e+00 -7.94893e-01
2
# CELL(abcABC):  188.97261   188.97261   188.97261    90.00000    90.00000    90.00000  Step:       13000  Bead:       0 x_centroid{angstrom}  cell{atomic_unit}
       O  1.09062e+00 -4.68832e-01 -1.02272e+00
       H  1.65306e+00 -1.17556e+00 -7.77304e-01
2
# CELL(abcABC):  188.97261   188.97261   188.97261    90.00000    90.00000    90.00000  Step:       13200  Bead:       0 x_centroid{angstrom}  cell{atomic_unit}
       O  1.02646e+00 -5.63522e-01 -9.94805e-01
       H  1.69452e+00 -1.05417e+00 -1.39651e+00
2
# CELL(abcABC):  188.97261   188.97261   188.97261    90.00000    90.00000    90.00000  Step:       13400  Bead:       0 x_centroid{angstrom}  cell{atomic_unit}
       O  9.80866e-01 -6.52440e-01 -1.08917e+00
       H  1.74264e+00 -9.74163e-01 -1.57232e+00
2
# CELL(abcABC):  188.97261   188.97261   188.97261    90.00000    90.00000    90.00000  Step:       13600  Bead:       0 x_centroid{angstrom}  cell{atomic_unit}
       O  9.94455e-01 -6.04559e-01 -1.04604e+00
       H  1.65748e+00 -1.14906e+00 -1.44538e+00
2
# CELL(abcABC):  188.97261   188.97261   188.97261    90.00000    90.00000    90.00000  Step:       13800  Bead:       0 x_centroid{angstrom}  cell{atomic_unit}
       O  9.85313e-01 -4.96031e-01 -1.00769e+00
       H  1.51377e+00 -9.76784e-01 -1.58887e+00
2
# CELL(abcABC):  188.97261   188.97261   188.97261    90.00000    90.00000    90.00000  Step:       14000  Bead:       0 x_centroid{angstrom}  cell{atomic_unit}
       O  1.06508e+00 -5.82172e-01 -1.10867e+00
       H  1.62107e+00 -1.03545e+00 -1.73474e+00
2
# CELL(abcABC):  188.97261   188.97261   188.97261    90.00000    90.00000    90.00000  Step:       14200  Bead:       0 x_centroid{angstrom}  cell{atomic_unit}
       O  1.07723e+00 -5.60312e-01 -1.09055e+00
       H  1.49356e+00 -1.26663e+00 -1.55447e+00
2
# CELL(abcABC):  188.97261   188.97261   188.97261    90.00000    90.00000    90.00000  Step:       14400  Bead:       0 x_centroid{angstrom}  cell{atomic_unit}
       O  1.09913e+00 -5.39195e-01 -1.06353e+00
       H  1.51877e+00 -1.35947e+00 -1.38452e+00
2
# CELL(abcABC):  188.97261   188.97261   188.97261    90.00000    90.00000    90.00000  Step:       14600  Bead:       0 x_centroid{angstrom}  cell{atomic_unit}
       O  1.14724e+00 -5.86028e-01 -9.56733e-01
       H  1.56564e+00 -1.22198e+00 -1.52672e+00
2
# CELL(abcABC):  188.97261   188.97261   188.97261    90.00000    90.00000    90.00000  Step:       14800  Bead:       0 x_centroid{angstrom}  cell{atomic_unit}
       O  1.14132e+00 -5.91635e-01 -9.53015e-01
       H  1.56015e+00 -1.38558e+00 -1.15029e+00
2
# CELL(abcABC):  188.97261   188.97261   188.97261    90.00000    90.00000    90.00000  Step:       15000  Bead:       0 x_centroid{angstrom}  cell{atomic_unit}
       O  1.14304e+00 -6.10417e-01 -9.24654e-01
       H  1.33671e+00 -1.56543e+00 -1.08902e+00
2
# CELL(abcABC):  188.97261   188.97261   188.97261    90.00000    90.00000    90.00000  Step:       15200  Bead:       0 x_centroid{angstrom}  cell{atomic_unit}
       O  1.14970e+00 -6.98273e-01 -7.75792e-01
       H  1.20457e+00 -1.64776e+00 -7.49913e-01
2
# CELL(abcABC):  188.97261   188.97261   188.97261    90.00000    90.00000    90.00000  Step:       15400  Bead:       0 x_centroid{angstrom}  cell{atomic_unit}
       O  1.18845e+00 -7.78670e-01 -8.00693e-01
       H  1.01608e+00 -1.55243e+00 -2.79389e-01
2
# CELL(abcABC):  188.97261   188.97261   188.97261    90.00000    90.00000    90.00000  Step:       15600  Bead:       0 x_centroid{angstrom}  cell{atomic_unit}
       O  1.21406e+00 -6.90823e-01 -7.00146e-01
       H  1.08555e+00 -1.45057e+00 -1.39111e-01
2
# CELL(abcABC):  188.97261   188.97261   188.97261    90.00000    90.00000    90.00000  Step:       15800  Bead:       0 x_centroid{angstrom}  cell{atomic_unit}
       O  1.22733e+00 -6.39942e-01 -6.75864e-01
       H  1.53231e+00 -1.54923e+00 -5.99900e-01
2
# CELL(abcABC):  188.97261   188.97261   188.97261    90.00000    90.00000    90.00000  Step:       16000  Bead:       0 x_centroid{angstrom}  cell{atomic_unit}
       O  1.18673e+00 -6.00015e-01 -6.39638e-01
       H  1.46813e+00 -1.46893e+00 -5.49945e-01
2
# CELL(abcABC):  188.97261   188.97261   188.97261    90.00000    90.00000    90.00000  Step:       16200  Bead:       0 x_centroid{angstrom}  cell{atomic_unit}
       O  1.07458e+00 -6.49299e-01 -6.17725e-01
       H  1.13832e+00 -1.44477e+00 -9.12338e-02
2
# CELL(abcABC):  188.97261   188.97261   188.97261    90.00000    90.00000    90.00000  Step:       16400  Bead:       0 x_centroid{angstrom}  cell{atomic_unit}
       O  9.67776e-01 -6.58755e-01 -5.94871e-01
       H  9.08543e-01 -1.46593e+00 -8.03533e-02
2
# CELL(abcABC):  188.97261   188.97261   188.97261    90.00000    90.00000    90.00000  Step:       16600  Bead:       0 x_centroid{angstrom}  cell{atomic_unit}
       O  9.55374e-01 -6.74933e-01 -5.91580e-01
       H  7.67963e-01 -1.52122e+00 -2.66983e-01
2
# CELL(abcABC):  188.97261   188.97261   188.97261    90.00000    90.00000    90.00000  Step:       16800  Bead:       0 x_centroid{angstrom}  cell{atomic_unit}
       O  9.09046e-01 -5.87948e-01 -5.85966e-01
       H  4.04468e-01 -1.38315e+00 -4.94303e-01
2
# CELL(abcABC):  188.97261   188.97261   188.97261    90.00000    90.00000    90.00000  Step:       17000  Bead:       0 x_centroid{angstrom}  cell{atomic_unit}
       O  8.33901e-01 -4.91990e-01 -4.81969e-01
       H  9.62333e-02 -1.04004e+00 -2.67208e-01
2
# CELL(abcABC):  188.97261   188.97261   188.97261    90.00000    90.00000    90.00000  Step:       17200  Bead:       0 x_centroid{angstrom}  cell{atomic_unit}
       O  9.49017e-01 -4.60549e-01 -3.91006e-01
       H  1.22333e-01 -7.10253e-01 -2.98702e-02
2
# CELL(abcABC):  188.97261   188.97261   188.97261    90.00000    90.00000    90.00000  Step:       17400  Bead:       0 x_centroid{angstrom}  cell{atomic_unit}
       O  9.38189e-01 -5.33374e-01 -4.55306e-01
       H  4.27052e-01 -5.27673e-01  3.37921e-01
2
# CELL(abcABC):  188.97261   188.97261   188.97261    90.00000    90.00000    90.00000  Step:       17600  Bead:       0 x_centroid{angstrom}  cell{atomic_unit}
       O  1.03898e+00 -6.00681e-01 -4.43214e-01
       H  6.05628e-01 -7.38966e-01  3.39372e-01
2
# CELL(abcABC):  188.97261   188.97261   188.97261    90.00000    90.00000    90.00000  Step:       17800  Bead:       0 x_centroid{angstrom}  cell{atomic_unit}
       O  9.86511e-01 -5.92351e-01 -4.35906e-01
       H  7.21234e-01 -1.06903e-01  3.84800e-01
2
# CELL(abcABC):  188.97261   188.97261   188.97261    90.00000    90.00000    90.00000  Step:       18000  Bead:       0 x_centroid{angstrom}  cell{atomic_unit}
       O  9.38597e-01 -5.49037e-01 -4.89817e-01
       H  9.77169e-01 -3.29390e-01  4.24195e-01
2
# CELL(abcABC):  188.97261   188.97261   188.97261    90.00000    90.00000    90.00000  Step:       18200  Bead:       0 x_centroid{angstrom}  cell{atomic_unit}
       O  9.53342e-01 -5.36223e-01 -4.13195e-01
       H  5.48599e-01 -5.95308e-01  4.17772e-01
2
# CELL(abcABC):  188.97261   188.97261   188.97261    90.00000    90.00000    90.00000  Step:       18400  Bead:       0 x_centroid{angstrom}  cell{atomic_unit}
       O  8.94450e-01 -4.83872e-01 -3.60639e-01
       H  6.48915e-01 -1.85055e-01  5.27830e-01
2
# CELL(abcABC):  188.97261   188.97261   188.97261    90.00000    90.00000    90.00000  Step:       18600  Bead:       0 x_centroid{angstrom}  cell{atomic_unit}
       O  9.11944e-01 -4.81074e-01 -3.12176e-01
       H  2.73329e-01 -5.33670e-01  4.01491e-01
2
# CELL(abcABC):  188.97261   188.97261   188.97261    90.00000    90.00000    90.00000  Step:       18800  Bead:       0 x_centroid{angstrom}  cell{atomic_unit}
       O  8.08604e-01 -5.70432e-01 -2.97657e-01
       H  2.40891e-01 -8.74837e-01  4.05699e-01
2
# CELL(abcABC):  188.97261   188.97261   188.97261    90.00000    90.00000    90.00000  Step:       19000  Bead:       0 x_centroid{angstrom}  cell{atomic_unit}
       O  8.68884e-01 -5.81208e-01 -2.23258e-01
       H  5.84419e-01 -1.23865e+00  4.04430e-01
2
# CELL(abcABC):  188.97261   188.97261   188.97261    90.00000    90.00000    90.00000  Step:       19200  Bead:       0 x_centroid{angstrom}  cell{atomic_unit}
       O  8.91284e-01 -6.10766e-01 -1.41531e-01
       H  1.05511e+00 -1.25912e+00  5.06583e-01
2
# CELL(abcABC):  188.97261   188.97261   188.97261    90.00000    90.00000    90.00000  Step:       19400  Bead:       0 x_centroid{angstrom}  cell{atomic_unit}
       O  9.89961e-01 -7.10504e-01 -1.39317e-02
       H  7.57533e-01 -1.19527e+00  7.72777e-01
2
# CELL(abcABC):  188.97261   188.97261   188.97261    90.00000    90.00000    90.00000  Step:       19600  Bead:       0 x_centroid{angstrom}  cell{atomic_unit}
       O  9.32285e-01 -6.12991e-01 -1.25796e-02
       H  6.76417e-01 -1.34084e+00  4.33648e-01
2
# CELL(abcABC):  188.97261   188.97261   188.97261    90.00000    90.00000    90.00000  Step:       19800  Bead:       0 x_centroid{angstrom}  cell{atomic_unit}
       O  9.71261e-01 -6.03856e-01  2.33975e-02
       H  7.18970e-01 -1.27012e+00  6.24169e-01
2
# CELL(abcABC):  188.97261   188.97261   188.97261    90.00000    90.00000    90.00000  Step:       20000  Bead:       0 x_centroid{angstrom}  cell{atomic_unit}
       O  9.93950e-01 -6.20250e-01  1.06941e-01
       H  8.92582e-01 -1.37386e+00  6.52117e-01
2
# CELL(abcABC):  188.97261   188.97261   188.97261    90.00000    90.00000    90.00000  Step:       20200  Bead:       0 x_centroid{angstrom}  cell{atomic_unit}
       O  9.96644e-01 -5.63283e-01  1.76532e-01
       H  7.14063e-01 -1.17518e+00  8.30100e-01
2
# CELL(abcABC):  188.97261   188.97261   188.97261    90.00000    90.00000    90.00000  Step:       20400  Bead:       0 x_centroid{angstrom}  cell{atomic_unit}
       O  9.82367e-01 -6.92500e-01  2.22119e-01
       H  5.02107e-01 -1.19732e+00  8.44675e-01
2
# CELL(abcABC):  188.97261   188.97261   188.97261    90.00000    90.00000    90.00000  Step:       20600  Bead:       0 x_centroid{angstrom}  cell{atomic_unit}
       O  9.06997e-01 -7.71538e-01  1.71761e-01
       H  5.13290e-01 -1.31362e+00  7.41846e-01
2
# CELL(abcABC):  188.97261   188.97261   188.97261    90.00000    90.00000    90.00000  Step:       20800  Bead:       0 x_centroid{angstrom}  cell{atomic_unit}
       O  7.97766e-01 -8.36601e-01  9.53054e-02
       H  1.05044e+00 -1.24054e+00  9.26939e-01
2
# CELL(abcABC):  188.97261   188.97261   188.97261    90.00000    90.00000    90.00000  Step:       21000  Bead:       0 x_centroid{angstrom}  cell{atomic_unit}
       O  8.66890e-01 -8.68944e-01  7.18019e-02
       H  9.66213e-01 -8.69074e-01  1.01211e+00
2
# CELL(abcABC):  188.97261   188.97261   188.97261    90.00000    90.00000    90.00000  Step:       21200  Bead:       0 x_centroid{angstrom}  cell{atomic_unit}
       O  8.32528e-01 -8.31784e-01  8.80400e-02
       H  9.87444e-01 -6.16519e-01  1.02035e+00
2
# CELL(abcABC):  188.97261   188.97261   188.97261    90.00000    90.00000    90.00000  Step:       21400  Bead:       0 x_centroid{angstrom}  cell{atomic_unit}
       O  7.80718e-01 -8.66343e-01  1.57344e-01
       H  1.22154e+00 -4.37938e-01  8.70702e-01
2
# CELL(abcABC):  188.97261   188.97261   188.97261    90.00000    90.00000    90.00000  Step:       21600  Bead:       0 x_centroid{angstrom}  cell{atomic_unit}
       O  6.02992e-01 -7.85902e-01  2.50772e-01
       H  1.37696e+00 -6.36101e-01  7.80084e-01
2
# CELL(abcABC):  188.97261   188.97261   188.97261    90.00000    90.00000    90.00000  Step:       21800  Bead:       0 x_centroid{angstrom}  cell{atomic_unit}
       O  6.19120e-01 -7.63500e-01  2.64218e-01
       H  1.30977e+00 -7.28242e-01  8.78677e-01
2
# CELL(abcABC):  188.97261   188.97261   188.97261    90.00000    90.00000    90.00000  Step:       22000  Bead:       0 x_centroid{angstrom}  cell{atomic_unit}
       O  6.41049e-01 -7.91725e-01  3.10748e-01
       H  1.43155e+00 -7.96700e-01  8.39512e-01
2
# CELL(abcABC):  188.97261   188.97261   188.97261    90.00000    90.00000    90.00000  Step:       22200  Bead:       0 x_centroid{angstrom}  cell{atomic_unit}
       O  6.87125e-01 -7.81225e-01  2.16007e-01
       H  1.58648e+00 -9.19792e-01  4.54190e-01
2
# CELL(abcABC):  188.97261   188.97261   188.97261    90.00000    90.00000    90.00000  Step:       22400  Bead:       0 x_centroid{angstrom}  cell{atomic_unit}
       O  6.80221e-01 -7.87393e-01  1.66899e-01
       H  1.49633e+00 -9.84368e-01  4.87578e-01
2
# CELL(abcABC):  188.97261   188.97261   188.97261    90.00000    90.00000    90.00000  Step:       22600  Bead:       0 x_centroid{angstrom}  cell{atomic_unit}
       O  6.76344e-01 -6.84614e-01  1.55726e-01
       H  1.44532e+00 -9.12275e-01  6.86904e-01
2
# CELL(abcABC):  188.97261   188.97261   188.97261    90.00000    90.00000    90.00000  Step:       22800  Bead:       0 x_centroid{angstrom}  cell{atomic_unit}
       O  7.53919e-01 -6.67701e-01 -1.72288e-02
       H  1.66239e+00 -8.33725e-01  2.20550e-01
2
# CELL(abcABC):  188.97261   188.97261   188.97261    90.00000    90.00000    90.00000  Step:       23000  Bead:       0 x_centroid{angstrom}  cell{atomic_unit}
       O  6.96722e-01 -6.34257e-01 -3.58229e-02