2
# CELL(abcABC):  188.97261   188.97261   188.97261    90.00000    90.00000    90.00000  Step:           0  Bead:       1 positions{angstrom}  cell{atomic_unit}
       O  9.69600e-01  0.00000e+00  0.00000e+00
       H  0.00000e+00  0.00000e+00  0.00000e+00
2
# CELL(abcABC):  188.97261   188.97261   188.97261    90.00000    90.00000    90.00000  Step:         200  Bead:       1 positions{angstrom}  cell{atomic_unit}
       O  9.61221e-01  4.51841e-02  4.11153e-02
       H  1.56671e-01 -4.61409e-01  1.01494e-01
2
# CELL(abcABC):  188.97261   188.97261   188.97261    90.00000    90.00000    90.00000  Step:         400  Bead:       1 positions{angstrom}  cell{atomic_unit}
       O  9.13317e-01  1.46768e-01 -3.29947e-02
       H  1.12664e-01  4.04175e-01 -5.01334e-01
2
# CELL(abcABC):  188.97261   188.97261   188.97261    90.00000    90.00000    90.00000  Step:         600  Bead:       1 positions{angstrom}  cell{atomic_unit}
       O  9.02586e-01  2.36394e-01 -1.00769e-01
       H  1.26979e-02  2.17582e-01  7.98448e-02
2
# CELL(abcABC):  188.97261   188.97261   188.97261    90.00000    90.00000    90.00000  Step:         800  Bead:       1 positions{angstrom}  cell{atomic_unit}
       O  8.68656e-01  2.63855e-01 -1.78455e-01
       H -3.06498e-02 -2.22988e-02 -2.25309e-01
2
# CELL(abcABC):  188.97261   188.97261   188.97261    90.00000    90.00000    90.00000  Step:        1000  Bead:       1 positions{angstrom}  cell{atomic_unit}
       O  8.85015e-01  1.68971e-01 -4.29563e-03
       H  3.09830e-01 -4.24418e-01 -5.36611e-01
2
# CELL(abcABC):  188.97261   188.97261   188.97261    90.00000    90.00000    90.00000  Step:        1200  Bead:       1 positions{angstrom}  cell{atomic_unit}
       O  9.03544e-01  6.09360e-02  8.77876e-02
       H  6.93515e-01 -6.03215e-01 -6.02667e-01
2
# CELL(abcABC):  188.97261   188.97261   188.97261    90.00000    90.00000    90.00000  Step:        1400  Bead:       1 positions{angstrom}  cell{atomic_unit}
       O  8.46590e-01  1.63880e-02 -4.73851e-02
       H  8.20349e-01 -5.09366e-01 -9.43469e-01
2
# CELL(abcABC):  188.97261   188.97261   188.97261    90.00000    90.00000    90.00000  Step:        1600  Bead:       1 positions{angstrom}  cell{atomic_unit}
       O  7.93582e-01 -3.55480e-02 -4.84444e-02
       H  9.77173e-01 -1.63346e-01 -1.04950e+00
2
# CELL(abcABC):  188.97261   188.97261   188.97261    90.00000    90.00000    90.00000  Step:        1800  Bead:       1 positions{angstrom}  cell{atomic_unit}
       O  8.72239e-01 -1.25521e-01 -2.33995e-01
       H  1.44855e+00  1.60648e-03 -9.55117e-01
2
# CELL(abcABC):  188.97261   188.97261   188.97261    90.00000    90.00000    90.00000  Step:        2000  Bead:       1 positions{angstrom}  cell{atomic_unit}
       O  7.60973e-01 -9.12695e-02 -2.18952e-01
       H  1.71560e+00  5.54716e-02 -4.62456e-01
2
# CELL(abcABC):  188.97261   188.97261   188.97261    90.00000    90.00000    90.00000  Step:        2200  Bead:       1 positions{angstrom}  cell{atomic_unit}
       O  7.16569e-01 -1.93017e-01 -2.18809e-01
       H  1.28871e+00 -2.23144e-02 -1.01561e+00
2
# CELL(abcABC):  188.97261   188.97261   188.97261    90.00000    90.00000    90.00000  Step:        2400  Bead:       1 positions{angstrom}  cell{atomic_unit}
       O  7.29940e-01 -5.56052e-02 -2.47814e-01
       H  1.41703e+00  2.80464e-01 -6.99860e-01
2
# CELL(abcABC):  188.97261   188.97261   188.97261    90.00000    90.00000    90.00000  Step:        2600  Bead:       1 positions{angstrom}  cell{atomic_unit}
       O  7.01124e-01 -2.52400e-02 -3.39125e-01
       H  1.22852e+00  3.00851e-01 -1.16430e+00
2
# CELL(abcABC):  188.97261   188.97261   188.97261    90.00000    90.00000    90.00000  Step:        2800  Bead:       1 positions{angstrom}  cell{atomic_unit}
       O  6.21432e-01 -9.13143e-04 -3.10266e-01
       H  1.17652e+00  1.56469e-01 -1.11878e+00
2
# CELL(abcABC):  188.97261   188.97261   188.97261    90.00000    90.00000    90.00000  Step:        3000  Bead:       1 positions{angstrom}  cell{atomic_unit}
       O  6.68722e-01 -1.36087e-01 -2.98863e-01
       H  1.19662e+00  3.70769e-01 -1.01125e+00
2
# CELL(abcABC):  188.97261   188.97261   188.97261    90.00000    90.00000    90.00000  Step:        3200  Bead:       1 positions{angstrom}  cell{atomic_unit}
       O  5.93907e-01 -3.05152e-01 -2.63852e-01
       H  8.67442e-01 -8.39575e-02 -1.19783e+00
2
# CELL(abcABC):  188.97261   188.97261   188.97261    90.00000    90.00000    90.00000  Step:        3400  Bead:       1 positions{angstrom}  cell{atomic_unit}
       O  6.07289e-01 -8.95344e-02 -3.42421e-01
       H  9.63503e-01  2.59967e-01 -1.17118e+00
2
# CELL(abcABC):  188.97261   188.97261   188.97261    90.00000    90.00000    90.00000  Step:        3600  Bead:       1 positions{angstrom}  cell{atomic_unit}
       O  6.91229e-01 -7.56949e-02 -1.81892e-01
       H  1.19744e+00  4.14862e-01 -8.07323e-01
2
# CELL(abcABC):  188.97261   188.97261   188.97261    90.00000    90.00000    90.00000  Step:        3800  Bead:       1 positions{angstrom}  cell{atomic_unit}
       O  6.74483e-01 -5.86615e-02 -2.90084e-01
       H  1.00688e+00  5.84560e-01 -1.12168e+00
2
# CELL(abcABC):  188.97261   188.97261   188.97261    90.00000    90.00000    90.00000  Step:        4000  Bead:       1 positions{angstrom}  cell{atomic_unit}
       O  7.82927e-01 -1.73324e-01 -3.39358e-01
       H  8.69636e-01  3.88984e-01 -1.09756e+00
2
# CELL(abcABC):  188.97261   188.97261   188.97261    90.00000    90.00000    90.00000  Step:        4200  Bead:       1 positions{angstrom}  cell{atomic_unit}
       O  7.56863e-01 -1.23417e-01 -4.38289e-01
       H  5.63519e-01 -1.14534e-01 -1.51884e+00
2
# CELL(abcABC):  188.97261   188.97261   188.97261    90.00000    90.00000    90.00000  Step:        4400  Bead:       1 positions{angstrom}  cell{atomic_unit}
       O  7.41157e-01 -4.01643e-02 -4.53979e-01
       H  8.14467e-01  1.18694e-01 -1.44523e+00
2
# CELL(abcABC):  188.97261   188.97261   188.97261    90.00000    90.00000    90.00000  Step:        4600  Bead:       1 positions{angstrom}  cell{atomic_unit}
       O  7.33787e-01 -8.30446e-03 -4.81323e-01
       H  9.88256e-01 -2.34476e-01 -1.40507e+00
2
# CELL(abcABC):  188.97261   188.97261   188.97261    90.00000    90.00000    90.00000  Step:        4800  Bead:       1 positions{angstrom}  cell{atomic_unit}
       O  6.34891e-01 -8.65256e-02 -5.40079e-01
       H  9.03096e-01  9.37700e-02 -1.45526e+00
2
# CELL(abcABC):  188.97261   188.97261   188.97261    90.00000    90.00000    90.00000  Step:        5000  Bead:       1 positions{angstrom}  cell{atomic_unit}
       O  6.24459e-01 -1.79064e-01 -5.21885e-01
       H  1.26445e+00  2.50448e-01 -1.14009e+00
2
# CELL(abcABC):  188.97261   188.97261   188.97261    90.00000    90.00000    90.00000  Step:        5200  Bead:       1 positions{angstrom}  cell{atomic_unit}
       O  8.49276e-01 -1.63734e-01 -4.82212e-01
       H  9.98174e-01  4.88227e-01 -1.23948e+00
2
# CELL(abcABC):  188.97261   188.97261   188.97261    90.00000    90.00000    90.00000  Step:        5400  Bead:       1 positions{angstrom}  cell{atomic_unit}
       O  7.98347e-01 -2.91672e-01 -6.85093e-01
       H  1.05306e+00 -4.36377e-02 -1.62010e+00
2
# CELL(abcABC):  188.97261   188.97261   188.97261    90.00000    90.00000    90.00000  Step:        5600  Bead:       1 positions{angstrom}  cell{atomic_unit}
       O  8.45448e-01 -2.89126e-01 -7.96055e-01
       H  3.54937e-01 -5.11107e-01 -1.63439e+00
2
# CELL(abcABC):  188.97261   188.97261   188.97261    90.00000    90.00000    90.00000  Step:        5800  Bead:       1 positions{angstrom}  cell{atomic_unit}
       O  7.83475e-01 -2.71210e-01 -8.55544e-01
       H  5.69366e-01 -6.25077e-01 -1.80109e+00
2
# CELL(abcABC):  188.97261   188.97261   188.97261    90.00000    90.00000    90.00000  Step:        6000  Bead:       1 positions{angstrom}  cell{atomic_unit}
       O  8.78570e-01 -3.25212e-01 -8.70027e-01
       H  6.20941e-01 -4.01806e-01 -1.83619e+00
2
# CELL(abcABC):  188.97261   188.97261   188.97261    90.00000    90.00000    90.00000  Step:        6200  Bead:       1 positions{angstrom}  cell{atomic_unit}
       O  9.02437e-01 -2.08326e-01 -9.19317e-01
       H  4.89526e-01 -6.16563e-01 -1.67884e+00
2
# CELL(abcABC):  188.97261   188.97261   188.97261    90.00000    90.00000    90.00000  Step:        6400  Bead:       1 positions{angstrom}  cell{atomic_unit}
       O  1.05380e+00 -3.39043e-01 -9.48077e-01
       H  3.09259e-01 -3.74174e-01 -1.52345e+00
2
# CELL(abcABC):  188.97261   188.97261   188.97261    90.00000    90.00000    90.00000  Step:        6600  Bead:       1 positions{angstrom}  cell{atomic_unit}
       O  9.39607e-01 -3.03476e-01 -1.10295e+00
       H  4.45229e-01  3.25657e-01 -1.67525e+00
2
# CELL(abcABC):  188.97261   188.97261   188.97261    90.00000    90.00000    90.00000  Step:        6800  Bead:       1 positions{angstrom}  cell{atomic_unit}
       O  9.78184e-01 -5.03510e-01 -1.09114e+00
       H  1.39703e-01 -2.29839e-01 -1.13372e+00
2
# CELL(abcABC):  188.97261   188.97261   188.97261    90.00000    90.00000    90.00000  Step:        7000  Bead:       1 positions{angstrom}  cell{atomic_unit}
       O  9.99261e-01 -4.12208e-01 -9.51708e-01
       H  8.50141e-02 -1.19004e-01 -1.31505e+00
2
# CELL(abcABC):  188.97261   188.97261   188.97261    90.00000    90.00000    90.00000  Step:        7200  Bead:       1 positions{angstrom}  cell{atomic_unit}
       O  1.08292e+00 -4.61514e-01 -1.04884e+00
       H  1.80468e-01 -4.65683e-01 -1.37784e+00
2
# CELL(abcABC):  188.97261   188.97261   188.97261    90.00000    90.00000    90.00000  Step:        7400  Bead:       1 positions{angstrom}  cell{atomic_unit}
       O  1.03518e+00 -3.72701e-01 -1.03394e+00
       H  1.57941e-01 -5.24887e-01 -8.27661e-01
2
# CELL(abcABC):  188.97261   188.97261   188.97261    90.00000    90.00000    90.00000  Step:        7600  Bead:       1 positions{angstrom}  cell{atomic_unit}
       O  1.03247e+00 -2.86313e-01 -1.11726e+00
       H  1.48677e-01 -2.31010e-01 -1.40200e+00
2
# CELL(abcABC):  188.97261   188.97261   188.97261    90.00000    90.00000    90.00000  Step:        7800  Bead:       1 positions{angstrom}  cell{atomic_unit}
       O  1.04609e+00 -3.76704e-01 -1.08306e+00
       H  3.00692e-01 -1.27770e-01 -1.60936e+00
2
# CELL(abcABC):  188.97261   188.97261   188.97261    90.00000    90.00000    90.00000  Step:        8000  Bead:       1 positions{angstrom}  cell{atomic_unit}
       O  1.10817e+00 -3.84532e-01 -1.29956e+00
       H  5.91287e-01  2.48460e-01 -8.59484e-01
2
# CELL(abcABC):  188.97261   188.97261   188.97261    90.00000    90.00000    90.00000  Step:        8200  Bead:       1 positions{angstrom}  cell{atomic_unit}
       O  9.10908e-01 -2.45094e-01 -1.17027e+00
       H  9.74344e-01  5.91966e-01 -6.50591e-01
2
# CELL(abcABC):  188.97261   188.97261   188.97261    90.00000    90.00000    90.00000  Step:        8400  Bead:       1 positions{angstrom}  cell{atomic_unit}
       O  9.53402e-01 -2.68820e-01 -1.11930e+00
       H  8.07373e-01  5.76748e-01 -1.47679e+00
2
# CELL(abcABC):  188.97261   188.97261   188.97261    90.00000    90.00000    90.00000  Step:        8600  Bead:       1 positions{angstrom}  cell{atomic_unit}
       O  8.89411e-01 -4.09607e-01 -1.04892e+00
       H  5.64217e-01  5.05269e-01 -1.34664e+00
2
# CELL(abcABC):  188.97261   188.97261   188.97261    90.00000    90.00000    90.00000  Step:        8800  Bead:       1 positions{angstrom}  cell{atomic_unit}
       O  9.49089e-01 -2.77468e-01 -9.97067e-01
       H  8.35365e-01  7.04447e-01 -1.01288e+00
2
# CELL(abcABC):  188.97261   188.97261   188.97261    90.00000    90.00000    90.00000  Step:        9000  Bead:       1 positions{angstrom}  cell{atomic_unit}
       O  9.65152e-01 -3.61442e-01 -1.04142e+00
       H  1.18235e+00  3.05976e-01 -3.88810e-01
2
# CELL(abcABC):  188.97261   188.97261   188.97261    90.00000    90.00000    90.00000  Step:        9200  Bead:       1 positions{angstrom}  cell{atomic_unit}
       O  9.06917e-01 -3.92128e-01 -8.74867e-01
       H  6.07330e-01  5.20003e-01 -7.74374e-01
2
# CELL(abcABC):  188.97261   188.97261   188.97261    90.00000    90.00000    90.00000  Step:        9400  Bead:       1 positions{angstrom}  cell{atomic_unit}
       O  7.89937e-01 -3.84609e-01 -7.70213e-01
       H  5.57922e-01  5.16501e-01 -3.95677e-01
2
# CELL(abcABC):  188.97261   188.97261   188.97261    90.00000    90.00000    90.00000  Step:        9600  Bead:       1 positions{angstrom}  cell{atomic_unit}
       O  8.51959e-01 -3.78072e-01 -9.02495e-01
       H  6.38639e-01  9.72129e-02 -1.20499e-01
2
# CELL(abcABC):  188.97261   188.97261   188.97261    90.00000    90.00000    90.00000  Step:        9800  Bead:       1 positions{angstrom}  cell{atomic_unit}
       O  8.28716e-01 -3.89685e-01 -8.27098e-01
       H  9.44701e-01 -7.89570e-02  9.12164e-02
2
# CELL(abcABC):  188.97261   188.97261   188.97261    90.00000    90.00000    90.00000  Step:       10000  Bead:       1 positions{angstrom}  cell{atomic_unit}
       O  7.93778e-01 -1.63569e-01 -7.99637e-01
       H  9.27936e-01 -3.48323e-01  8.10533e-02
2
# CELL(abcABC):  188.97261   188.97261   188.97261    90.00000    90.00000    90.00000  Step:       10200  Bead:       1 positions{angstrom}  cell{atomic_unit}
       O  8.78423e-01 -7.19603e-02 -8.29000e-01
       H  3.55627e-01 -2.44591e-01 -4.95885e-02
2
# CELL(abcABC):  188.97261   188.97261   188.97261    90.00000    90.00000    90.00000  Step:       10400  Bead:       1 positions{angstrom}  cell{atomic_unit}
       O  8.09986e-01 -2.29947e-01 -7.54310e-01
       H  8.12007e-01 -2.00294e-01  3.07836e-01
2
# CELL(abcABC):  188.97261   188.97261   188.97261    90.00000    90.00000    90.00000  Step:       10600  Bead:       1 positions{angstrom}  cell{atomic_unit}
       O  8.79364e-01 -1.90070e-01 -7.44712e-01
       H  7.99868e-01 -4.91593e-01  1.65683e-01
2
# CELL(abcABC):  188.97261   188.97261   188.97261    90.00000    90.00000    90.00000  Step:       10800  Bead:       1 positions{angstrom}  cell{atomic_unit}
       O  9.77294e-01 -2.21156e-01 -6.87655e-01
       H  1.12438e+00 -1.02905e-01  3.30302e-01
2
# CELL(abcABC):  188.97261   188.97261   188.97261    90.00000    90.00000    90.00000  Step:       11000  Bead:       1 positions{angstrom}  cell{atomic_unit}
       O  1.00556e+00 -2.71802e-01 -8.82078e-01
       H  1.24939e+00 -6.47105e-01 -1.40260e-01
2
# CELL(abcABC):  188.97261   188.97261   188.97261    90.00000    90.00000    90.00000  Step:       11200  Bead:       1 positions{angstrom}  cell{atomic_unit}
       O  9.72989e-01 -1.46628e-01 -1.06361e+00
       H  1.48515e+00 -4.25151e-01 -2.57170e-01
2
# CELL(abcABC):  188.97261   188.97261   188.97261    90.00000    90.00000    90.00000  Step:       11400  Bead:       1 positions{angstrom}  cell{atomic_unit}
       O  1.01780e+00 -2.73790e-01 -9.25281e-01
       H  1.09079e+00 -7.77764e-01 -1.30260e-01
2
# CELL(abcABC):  188.97261   188.97261   188.97261    90.00000    90.00000    90.00000  Step:       11600  Bead:       1 positions{angstrom}  cell{atomic_unit}
       O  1.14089e+00 -3.26177e-01 -9.13971e-01
       H  9.34510e-01 -6.92985e-01 -2.37153e-02
2
# CELL(abcABC):  188.97261   188.97261   188.97261    90.00000    90.00000    90.00000  Step:       11800  Bead:       1 positions{angstrom}  cell{atomic_unit}
       O  1.00831e+00 -4.40250e-01 -1.00208e+00
       H  9.03372e-01 -8.24084e-01 -1.05500e-01
2
# CELL(abcABC):  188.97261   188.97261   188.97261    90.00000    90.00000    90.00000  Step:       12000  Bead:       1 positions{angstrom}  cell{atomic_unit}
       O  1.14525e+00 -6.21043e-01 -1.03525e+00
       H  7.71918e-01 -8.06819e-01 -2.88419e-01
2
# CELL(abcABC):  188.97261   188.97261   188.97261    90.00000    90.00000    90.00000  Step:       12200  Bead:       1 positions{angstrom}  cell{atomic_unit}
       O  1.15345e+00 -5.05567e-01 -1.20358e+00
       H  1.24717e+00 -1.01288e+00 -4.73803e-01
2
# CELL(abcABC):  188.97261   188.97261   188.97261    90.00000    90.00000    90.00000  Step:       12400  Bead:       1 positions{angstrom}  cell{atomic_unit}
       O  1.20165e+00 -4.88068e-01 -1.28521e+00
       H  1.44591e+00 -1.16457e+00 -6.14843e-01
2
# CELL(abcABC):  188.97261   188.97261   188.97261    90.00000    90.00000    90.00000  Step:       12600  Bead:       1 positions{angstrom}  cell{atomic_unit}
       O  1.12917e+00 -4.28432e-01 -1.20014e+00
       H  1.27331e+00 -1.26222e+00 -7.41683e-01
2
# CELL(abcABC):  188.97261   188.97261   188.97261    90.00000    90.00000    90.00000  Step:       12800  Bead:       1 positions{angstrom}  cell{atomic_unit}
       O  1.11052e+00 -4.83719e-01 -1.19820e+00
       H  1.38868e+00 -1.34560e+00 -8.93675e-01
2
# CELL(abcABC):  188.97261   188.97261   188.97261    90.00000    90.00000    90.00000  Step:       13000  Bead:       1 positions{angstrom}  cell{atomic_unit}
       O  1.08902e+00 -5.27642e-01 -9.50919e-01
       H  1.53621e+00 -1.47609e+00 -7.51063e-01
2
# CELL(abcABC):  188.97261   188.97261   188.97261    90.00000    90.00000    90.00000  Step:       13200  Bead:       1 positions{angstrom}  cell{atomic_unit}
       O  9.74168e-01 -5.03162e-01 -1.01528e+00
       H  1.70212e+00 -1.10738e+00 -1.05167e+00
2
# CELL(abcABC):  188.97261   188.97261   188.97261    90.00000    90.00000    90.00000  Step:       13400  Bead:       1 positions{angstrom}  cell{atomic_unit}
       O  1.02184e+00 -6.89796e-01 -1.06358e+00
       H  1.76226e+00 -7.51406e-01 -1.59299e+00
2
# CELL(abcABC):  188.97261   188.97261   188.97261    90.00000    90.00000    90.00000  Step:       13600  Bead:       1 positions{angstrom}  cell{atomic_unit}
       O  1.06034e+00 -6.53695e-01 -1.05226e+00
       H  1.58132e+00 -1.17921e+00 -1.67497e+00
2
# CELL(abcABC):  188.97261   188.97261   188.97261    90.00000    90.00000    90.00000  Step:       13800  Bead:       1 positions{angstrom}  cell{atomic_unit}
       O  1.04073e+00 -5.49374e-01 -9.59303e-01
       H  1.28725e+00 -1.22719e+00 -1.60909e+00
2
# CELL(abcABC):  188.97261   188.97261   188.97261    90.00000    90.00000    90.00000  Step:       14000  Bead:       1 positions{angstrom}  cell{atomic_unit}
       O  1.09705e+00 -5.64106e-01 -1.02893e+00
       H  1.30717e+00 -1.34834e+00 -1.51147e+00
2
# CELL(abcABC):  188.97261   188.97261   188.97261    90.00000    90.00000    90.00000  Step:       14200  Bead:       1 positions{angstrom}  cell{atomic_unit}
       O  1.01897e+00 -6.03326e-01 -1.09301e+00
       H  1.29968e+00 -1.27604e+00 -1.75336e+00
2
# CELL(abcABC):  188.97261   188.97261   188.97261    90.00000    90.00000    90.00000  Step:       14400  Bead:       1 positions{angstrom}  cell{atomic_unit}
       O  1.10826e+00 -5.72328e-01 -1.13795e+00
       H  1.49640e+00 -1.51414e+00 -1.26995e+00
2
# CELL(abcABC):  188.97261   188.97261   188.97261    90.00000    90.00000    90.00000  Step:       14600  Bead:       1 positions{angstrom}  cell{atomic_unit}
       O  1.16390e+00 -5.76940e-01 -9.37329e-01
       H  1.66971e+00 -1.08065e+00 -1.51052e+00
2
# CELL(abcABC):  188.97261   188.97261   188.97261    90.00000    90.00000    90.00000  Step:       14800  Bead:       1 positions{angstrom}  cell{atomic_unit}
       O  1.12623e+00 -5.97639e-01 -1.03514e+00
       H  1.62963e+00 -1.38384e+00 -8.55202e-01
2
# CELL(abcABC):  188.97261   188.97261   188.97261    90.00000    90.00000    90.00000  Step:       15000  Bead:       1 positions{angstrom}  cell{atomic_unit}
       O  1.18163e+00 -5.30970e-01 -8.84766e-01
       H  1.25439e+00 -1.71339e+00 -9.74117e-01
2
# CELL(abcABC):  188.97261   188.97261   188.97261    90.00000    90.00000    90.00000  Step:       15200  Bead:       1 positions{angstrom}  cell{atomic_unit}
       O  1.28321e+00 -7.56065e-01 -7.79617e-01
       H  1.46830e+00 -1.64838e+00 -5.64279e-01
2
# CELL(abcABC):  188.97261   188.97261   188.97261    90.00000    90.00000    90.00000  Step:       15400  Bead:       1 positions{angstrom}  cell{atomic_unit}
       O  1.20740e+00 -7.56695e-01 -7.68096e-01
       H  1.14431e+00 -1.56535e+00 -3.47645e-01
2
# CELL(abcABC):  188.97261   188.97261   188.97261    90.00000    90.00000    90.00000  Step:       15600  Bead:       1 positions{angstrom}  cell{atomic_unit}
       O  1.28127e+00 -7.09929e-01 -7.85430e-01
       H  1.51552e+00 -1.29370e+00 -7.20883e-02
2
# CELL(abcABC):  188.97261   188.97261   188.97261    90.00000    90.00000    90.00000  Step:       15800  Bead:       1 positions{angstrom}  cell{atomic_unit}
       O  1.22267e+00 -6.60011e-01 -7.18337e-01
       H  1.58885e+00 -1.62760e+00 -4.06201e-01
2
# CELL(abcABC):  188.97261   188.97261   188.97261    90.00000    90.00000    90.00000  Step:       16000  Bead:       1 positions{angstrom}  cell{atomic_unit}
       O  1.24995e+00 -5.68931e-01 -6.27429e-01
       H  1.30073e+00 -1.60829e+00 -6.91126e-01
2
# CELL(abcABC):  188.97261   188.97261   188.97261    90.00000    90.00000    90.00000  Step:       16200  Bead:       1 positions{angstrom}  cell{atomic_unit}
       O  9.85322e-01 -6.73057e-01 -6.29389e-01
       H  1.48317e+00 -1.38493e+00 -1.27345e-01
2
# CELL(abcABC):  188.97261   188.97261   188.97261    90.00000    90.00000    90.00000  Step:       16400  Bead:       1 positions{angstrom}  cell{atomic_unit}
       O  8.80553e-01 -6.53580e-01 -6.10301e-01
       H  1.28565e+00 -1.60821e+00 -3.62964e-01
2
# CELL(abcABC):  188.97261   188.97261   188.97261    90.00000    90.00000    90.00000  Step:       16600  Bead:       1 positions{angstrom}  cell{atomic_unit}
       O  9.48112e-01 -6.81678e-01 -5.90340e-01
       H  5.53374e-01 -1.34645e+00 -6.96107e-03
2
# CELL(abcABC):  188.97261   188.97261   188.97261    90.00000    90.00000    90.00000  Step:       16800  Bead:       1 positions{angstrom}  cell{atomic_unit}
       O  9.19988e-01 -5.94545e-01 -5.29415e-01
       H -2.00962e-02 -1.23977e+00 -5.04354e-01
2
# CELL(abcABC):  188.97261   188.97261   188.97261    90.00000    90.00000    90.00000  Step:       17000  Bead:       1 positions{angstrom}  cell{atomic_unit}
       O  7.96467e-01 -4.62037e-01 -4.50061e-01
       H  3.15117e-02 -9.75471e-01 -3.74334e-01
2
# CELL(abcABC):  188.97261   188.97261   188.97261    90.00000    90.00000    90.00000  Step:       17200  Bead:       1 positions{angstrom}  cell{atomic_unit}
       O  9.76283e-01 -4.91935e-01 -4.00002e-01
       H  1.47724e-01 -5.28994e-01 -1.06536e-01
2
# CELL(abcABC):  188.97261   188.97261   188.97261    90.00000    90.00000    90.00000  Step:       17400  Bead:       1 positions{angstrom}  cell{atomic_unit}
       O  1.04263e+00 -5.08367e-01 -4.29635e-01
       H  5.27394e-01 -7.54568e-01  3.59050e-01
2
# CELL(abcABC):  188.97261   188.97261   188.97261    90.00000    90.00000    90.00000  Step:       17600  Bead:       1 positions{angstrom}  cell{atomic_unit}
       O  1.10065e+00 -5.52745e-01 -4.72318e-01
       H  5.92617e-01 -4.84298e-01  4.27060e-01
2
# CELL(abcABC):  188.97261   188.97261   188.97261    90.00000    90.00000    90.00000  Step:       17800  Bead:       1 positions{angstrom}  cell{atomic_unit}
       O  1.05698e+00 -5.29047e-01 -4.43905e-01
       H  7.30937e-01  2.65551e-02  3.69790e-01
2
# CELL(abcABC):  188.97261   188.97261   188.97261    90.00000    90.00000    90.00000  Step:       18000  Bead:       1 positions{angstrom}  cell{atomic_unit}
       O  9.39326e-01 -5.41286e-01 -5.00053e-01
       H  8.38311e-01 -4.20648e-01  4.32273e-01
2
# CELL(abcABC):  188.97261   188.97261   188.97261    90.00000    90.00000    90.00000  Step:       18200  Bead:       1 positions{angstrom}  cell{atomic_unit}
       O  9.51395e-01 -5.90774e-01 -5.04487e-01
       H  8.30981e-01 -4.07906e-01  4.94150e-01
2
# CELL(abcABC):  188.97261   188.97261   188.97261    90.00000    90.00000    90.00000  Step:       18400  Bead:       1 positions{angstrom}  cell{atomic_unit}
       O  9.02953e-01 -4.70481e-01 -4.16085e-01
       H  8.03940e-01 -1.76461e-01  5.71242e-01
2
# CELL(abcABC):  188.97261   188.97261   188.97261    90.00000    90.00000    90.00000  Step:       18600  Bead:       1 positions{angstrom}  cell{atomic_unit}
       O  9.27021e-01 -3.92466e-01 -2.78802e-01
       H  2.58603e-01 -6.69810e-01  5.55120e-01
2
# CELL(abcABC):  188.97261   188.97261   188.97261    90.00000    90.00000    90.00000  Step:       18800  Bead:       1 positions{angstrom}  cell{atomic_unit}
       O  8.24723e-01 -6.83880e-01 -2.35656e-01
       H  1.49367e-01 -1.29861e+00  3.84409e-01
2
# CELL(abcABC):  188.97261   188.97261   188.97261    90.00000    90.00000    90.00000  Step:       19000  Bead:       1 positions{angstrom}  cell{atomic_unit}
       O  8.31089e-01 -6.50680e-01 -1.15916e-01
       H  4.51947e-01 -1.35463e+00  3.47160e-01
2
# CELL(abcABC):  188.97261   188.97261   188.97261    90.00000    90.00000    90.00000  Step:       19200  Bead:       1 positions{angstrom}  cell{atomic_unit}
       O  8.01323e-01 -6.64615e-01 -1.38540e-01
       H  1.43002e+00 -1.22004e+00  3.78620e-01
2
# CELL(abcABC):  188.97261   188.97261   188.97261    90.00000    90.00000    90.00000  Step:       19400  Bead:       1 positions{angstrom}  cell{atomic_unit}
       O  9.96222e-01 -7.68846e-01 -4.82080e-02
       H  6.55158e-01 -1.27861e+00  6.63401e-01
2
# CELL(abcABC):  188.97261   188.97261   188.97261    90.00000    90.00000    90.00000  Step:       19600  Bead:       1 positions{angstrom}  cell{atomic_unit}
       O  9.10970e-01 -6.59365e-01  5.15112e-02
       H  7.70488e-01 -1.45941e+00  5.19402e-01
2
# CELL(abcABC):  188.97261   188.97261   188.97261    90.00000    90.00000    90.00000  Step:       19800  Bead:       1 positions{angstrom}  cell{atomic_unit}
       O  9.61545e-01 -6.05886e-01  3.03650e-02
       H  7.76163e-01 -1.21719e+00  7.53572e-01
2
# CELL(abcABC):  188.97261   188.97261   188.97261    90.00000    90.00000    90.00000  Step:       20000  Bead:       1 positions{angstrom}  cell{atomic_unit}
       O  1.00506e+00 -6.25948e-01  1.22314e-01
       H  1.07358e+00 -1.55570e+00  5.17296e-01
2
# CELL(abcABC):  188.97261   188.97261   188.97261    90.00000    90.00000    90.00000  Step:       20200  Bead:       1 positions{angstrom}  cell{atomic_unit}
       O  9.41998e-01 -5.65496e-01  1.15458e-01
       H  9.00298e-01 -1.24059e+00  8.57314e-01
2
# CELL(abcABC):  188.97261   188.97261   188.97261    90.00000    90.00000    90.00000  Step:       20400  Bead:       1 positions{angstrom}  cell{atomic_unit}
       O  1.00636e+00 -6.86879e-01  1.89677e-01
       H  3.94725e-01 -1.31448e+00  6.81403e-01
2
# CELL(abcABC):  188.97261   188.97261   188.97261    90.00000    90.00000    90.00000  Step:       20600  Bead:       1 positions{angstrom}  cell{atomic_unit}
       O  8.34864e-01 -7.07149e-01  1.83419e-01
       H  1.06500e+00 -1.39324e+00  8.59215e-01
2
# CELL(abcABC):  188.97261   188.97261   188.97261    90.00000    90.00000    90.00000  Step:       20800  Bead:       1 positions{angstrom}  cell{atomic_unit}
       O  8.48823e-01 -8.53862e-01  1.48763e-01
       H  1.13734e+00 -1.31379e+00  1.06245e+00
2
# CELL(abcABC):  188.97261   188.97261   188.97261    90.00000    90.00000    90.00000  Step:       21000  Bead:       1 positions{angstrom}  cell{atomic_unit}
       O  8.31752e-01 -8.92680e-01  4.79481e-02
       H  8.72435e-01 -8.97154e-01  9.61675e-01
2
# CELL(abcABC):  188.97261   188.97261   188.97261    90.00000    90.00000    90.00000  Step:       21200  Bead:       1 positions{angstrom}  cell{atomic_unit}
       O  8.49481e-01 -9.04736e-01  6.31729e-02
       H  1.01551e+00 -7.74025e-01  9.75000e-01
2
# CELL(abcABC):  188.97261   188.97261   188.97261    90.00000    90.00000    90.00000  Step:       21400  Bead:       1 positions{angstrom}  cell{atomic_unit}
       O  7.64375e-01 -8.83181e-01  1.33439e-01
       H  1.15707e+00 -2.72097e-01  7.26525e-01
2
# CELL(abcABC):  188.97261   188.97261   188.97261    90.00000    90.00000    90.00000  Step:       21600  Bead:       1 positions{angstrom}  cell{atomic_unit}
       O  5.82954e-01 -6.98532e-01  2.90324e-01
       H  1.32827e+00 -4.09891e-01  7.50401e-01
2
# CELL(abcABC):  188.97261   188.97261   188.97261    90.00000    90.00000    90.00000  Step:       21800  Bead:       1 positions{angstrom}  cell{atomic_unit}
       O  6.68113e-01 -7.83575e-01  3.60717e-01
       H  1.46831e+00 -5.27895e-01  7.98146e-01
2
# CELL(abcABC):  188.97261   188.97261   188.97261    90.00000    90.00000    90.00000  Step:       22000  Bead:       1 positions{angstrom}  cell{atomic_unit}
       O  6.01269e-01 -8.55926e-01  2.62756e-01
       H  1.63847e+00 -8.52141e-01  5.02709e-01
2
# CELL(abcABC):  188.97261   188.97261   188.97261    90.00000    90.00000    90.00000  Step:       22200  Bead:       1 positions{angstrom}  cell{atomic_unit}
       O  7.87576e-01 -7.24738e-01  1.97292e-01
       H  1.70626e+00 -7.51789e-01  2.62784e-01
2
# CELL(abcABC):  188.97261   188.97261   188.97261    90.00000    90.00000    90.00000  Step:       22400  Bead:       1 positions{angstrom}  cell{atomic_unit}
       O  7.17699e-01 -7.09322e-01  2.21028e-01
       H  1.36497e+00 -1.28013e+00  6.10849e-01
2
# CELL(abcABC):  188.97261   188.97261   188.97261    90.00000    90.00000    90.00000  Step:       22600  Bead:       1 positions{angstrom}  cell{atomic_unit}
       O  7.22900e-01 -7.09470e-01  7.97379e-02
       H  1.62062e+00 -1.10232e+00  5.71228e-01
2
# CELL(abcABC):  188.97261   188.97261   188.97261    90.00000    90.00000    90.00000  Step:       22800  Bead:       1 positions{angstrom}  cell{atomic_unit}
       O  6.92278e-01 -5.92820e-01 -5.93747e-02
       H  1.67712e+00 -7.60945e-01  4.00733e-01
2
# CELL(abcABC):  188.97261   188.97261   188.97261    90.00000    90.00000    90.00000  Step:       23000  Bead:       1 positions{angstrom}  cell{atomic_unit}
       O  7.61185e-01 -6.62865e-01 -8.18060e-02
       H  1.65335e+00 -6.36594e-01  1.67058e-01
2