2
# CELL(abcABC):  188.97261   188.97261   188.97261    90.00000    90.00000    90.00000  Step:           0  Bead:       1 velocities{atomic_unit}  cell{atomic_unit}
       O  1.01159e-03  6.39939e-05  9.08192e-04
       H -1.71035e-03 -4.53091e-04 -1.86004e-03
2
# CELL(abcABC):  188.97261   188.97261   188.97261    90.00000    90.00000    90.00000  Step:         200  Bead:       1 velocities{atomic_unit}  cell{atomic_unit}
       O  5.13752e-04  2.33322e-04 -9.88922e-04
       H  2.55333e-03 -1.27485e-03  4.79030e-03
2
# CELL(abcABC):  188.97261   188.97261   188.97261    90.00000    90.00000    90.00000  Step:         400  Bead:       1 velocities{atomic_unit}  cell{atomic_unit}
       O -5.49817e-04 -9.04457e-05  3.41640e-05
       H  8.59721e-04  3.65284e-04 -5.86141e-04
2
# CELL(abcABC):  188.97261   188.97261   188.97261    90.00000    90.00000    90.00000  Step:         600  Bead:       1 velocities{atomic_unit}  cell{atomic_unit}
       O -1.06472e-03  1.03434e-03 -6.30131e-05
       H -4.07418e-03  1.66681e-03  4.69770e-04
2
# CELL(abcABC):  188.97261   188.97261   188.97261    90.00000    90.00000    90.00000  Step:         800  Bead:       1 velocities{atomic_unit}  cell{atomic_unit}
       O -7.74378e-04  4.08626e-05 -1.83801e-04
       H  3.61223e-03  1.45567e-03 -1.09907e-03
2
# CELL(abcABC):  188.97261   188.97261   188.97261    90.00000    90.00000    90.00000  Step:        1000  Bead:       1 velocities{atomic_unit}  cell{atomic_unit}
       O -4.10526e-04  2.94230e-04 -2.62552e-04
       H  3.92823e-03  3.33201e-03  1.34465e-03
2
# CELL(abcABC):  188.97261   188.97261   188.97261    90.00000    90.00000    90.00000  Step:        1200  Bead:       1 velocities{atomic_unit}  cell{atomic_unit}
       O  6.37230e-04 -9.83503e-04  1.28078e-04
       H  1.12475e-03  5.26597e-04 -1.48441e-03
2
# CELL(abcABC):  188.97261   188.97261   188.97261    90.00000    90.00000    90.00000  Step:        1400  Bead:       1 velocities{atomic_unit}  cell{atomic_unit}
       O  6.16064e-04 -9.41938e-04 -5.02304e-04
       H  3.47254e-03  4.21273e-03 -4.19070e-03
2
# CELL(abcABC):  188.97261   188.97261   188.97261    90.00000    90.00000    90.00000  Step:        1600  Bead:       1 velocities{atomic_unit}  cell{atomic_unit}
       O -5.78457e-04 -9.01299e-05 -8.22370e-04
       H -2.65146e-03 -1.10560e-03  1.56128e-03
2
# CELL(abcABC):  188.97261   188.97261   188.97261    90.00000    90.00000    90.00000  Step:        1800  Bead:       1 velocities{atomic_unit}  cell{atomic_unit}
       O  1.19392e-05  2.62150e-04  3.56912e-04
       H -7.71235e-04  1.51338e-03  1.55541e-03
2
# CELL(abcABC):  188.97261   188.97261   188.97261    90.00000    90.00000    90.00000  Step:        2000  Bead:       1 velocities{atomic_unit}  cell{atomic_unit}
       O -2.32237e-04 -1.88628e-04 -5.97414e-04
       H -1.00552e-03  6.30044e-04 -3.52585e-03
2
# CELL(abcABC):  188.97261   188.97261   188.97261    90.00000    90.00000    90.00000  Step:        2200  Bead:       1 velocities{atomic_unit}  cell{atomic_unit}
       O  1.64810e-03  7.47195e-04 -3.45236e-04
       H  8.17243e-05  1.39547e-03 -1.49536e-03
2
# CELL(abcABC):  188.97261   188.97261   188.97261    90.00000    90.00000    90.00000  Step:        2400  Bead:       1 velocities{atomic_unit}  cell{atomic_unit}
       O -1.48929e-04  1.01335e-03  6.01840e-04
       H  1.59318e-03  1.92949e-03 -1.89746e-03
2
# CELL(abcABC):  188.97261   188.97261   188.97261    90.00000    90.00000    90.00000  Step:        2600  Bead:       1 velocities{atomic_unit}  cell{atomic_unit}
       O  1.23340e-03  1.30637e-03 -3.74103e-04
       H  1.05174e-03  4.72059e-04  6.75164e-04
2
# CELL(abcABC):  188.97261   188.97261   188.97261    90.00000    90.00000    90.00000  Step:        2800  Bead:       1 velocities{atomic_unit}  cell{atomic_unit}
       O -1.06619e-03  4.26415e-05  6.35918e-04
       H -1.55659e-03  4.31732e-05 -6.67401e-03
2
# CELL(abcABC):  188.97261   188.97261   188.97261    90.00000    90.00000    90.00000  Step:        3000  Bead:       1 velocities{atomic_unit}  cell{atomic_unit}
       O  2.09267e-04 -9.78745e-04 -7.74860e-04
       H -1.98538e-03 -2.17448e-03 -3.15294e-03
2
# CELL(abcABC):  188.97261   188.97261   188.97261    90.00000    90.00000    90.00000  Step:        3200  Bead:       1 velocities{atomic_unit}  cell{atomic_unit}
       O -1.38655e-04  1.02094e-03  4.69482e-04
       H  1.95690e-04 -7.08222e-04 -1.75543e-04
2
# CELL(abcABC):  188.97261   188.97261   188.97261    90.00000    90.00000    90.00000  Step:        3400  Bead:       1 velocities{atomic_unit}  cell{atomic_unit}
       O  7.82336e-04 -1.03078e-03  2.24602e-04
       H -2.20919e-03  6.22591e-04 -4.35813e-03
2
# CELL(abcABC):  188.97261   188.97261   188.97261    90.00000    90.00000    90.00000  Step:        3600  Bead:       1 velocities{atomic_unit}  cell{atomic_unit}
       O -9.85204e-05  2.20642e-04 -1.03677e-03
       H  6.42804e-04 -3.97050e-03  2.67845e-03
2
# CELL(abcABC):  188.97261   188.97261   188.97261    90.00000    90.00000    90.00000  Step:        3800  Bead:       1 velocities{atomic_unit}  cell{atomic_unit}
       O -5.67592e-04  5.20275e-04  5.19880e-04
       H  4.62804e-03  3.68584e-04  1.40076e-03
2
# CELL(abcABC):  188.97261   188.97261   188.97261    90.00000    90.00000    90.00000  Step:        4000  Bead:       1 velocities{atomic_unit}  cell{atomic_unit}
       O  7.76416e-05 -8.53940e-06 -2.26001e-04
       H -8.87284e-04 -1.17695e-03  2.31464e-03
2
# CELL(abcABC):  188.97261   188.97261   188.97261    90.00000    90.00000    90.00000  Step:        4200  Bead:       1 velocities{atomic_unit}  cell{atomic_unit}
       O  8.64555e-04  1.86987e-04 -1.66987e-03
       H  2.09677e-03 -2.43072e-04  2.14030e-03
2
# CELL(abcABC):  188.97261   188.97261   188.97261    90.00000    90.00000    90.00000  Step:        4400  Bead:       1 velocities{atomic_unit}  cell{atomic_unit}
       O  7.95577e-04 -4.66299e-04  3.12258e-04
       H  4.08197e-03 -4.83176e-04 -1.63567e-03
2
# CELL(abcABC):  188.97261   188.97261   188.97261    90.00000    90.00000    90.00000  Step:        4600  Bead:       1 velocities{atomic_unit}  cell{atomic_unit}
       O -3.25550e-04  1.41653e-04 -2.40427e-04
       H  1.76039e-03 -1.86180e-03  2.25451e-03
2
# CELL(abcABC):  188.97261   188.97261   188.97261    90.00000    90.00000    90.00000  Step:        4800  Bead:       1 velocities{atomic_unit}  cell{atomic_unit}
       O -1.19732e-03 -6.66807e-05  1.30960e-03
       H  1.36026e-03 -1.96531e-03 -6.64257e-04
2
# CELL(abcABC):  188.97261   188.97261   188.97261    90.00000    90.00000    90.00000  Step:        5000  Bead:       1 velocities{atomic_unit}  cell{atomic_unit}
       O -7.44010e-04 -4.24349e-04  5.19559e-04
       H  7.22453e-04  3.63964e-03  5.05776e-03
2
# CELL(abcABC):  188.97261   188.97261   188.97261    90.00000    90.00000    90.00000  Step:        5200  Bead:       1 velocities{atomic_unit}  cell{atomic_unit}
       O  1.93501e-04 -1.53897e-04 -1.36457e-03
       H -3.54705e-03  2.68128e-03 -3.11935e-03
2
# CELL(abcABC):  188.97261   188.97261   188.97261    90.00000    90.00000    90.00000  Step:        5400  Bead:       1 velocities{atomic_unit}  cell{atomic_unit}
       O  7.40177e-04 -5.19228e-04 -3.20735e-04
       H -1.96728e-03 -2.88888e-03 -3.21027e-03
2
# CELL(abcABC):  188.97261   188.97261   188.97261    90.00000    90.00000    90.00000  Step:        5600  Bead:       1 velocities{atomic_unit}  cell{atomic_unit}
       O -7.40183e-05 -1.57730e-04 -6.89861e-04
       H -1.86020e-03 -3.43707e-03 -6.02693e-04
2
# CELL(abcABC):  188.97261   188.97261   188.97261    90.00000    90.00000    90.00000  Step:        5800  Bead:       1 velocities{atomic_unit}  cell{atomic_unit}
       O -2.37010e-04 -4.02315e-05  2.26384e-04
       H  1.85005e-03 -3.83170e-03  3.90391e-03
2
# CELL(abcABC):  188.97261   188.97261   188.97261    90.00000    90.00000    90.00000  Step:        6000  Bead:       1 velocities{atomic_unit}  cell{atomic_unit}
       O  3.67933e-04  1.02310e-03 -3.19637e-04
       H  2.60900e-03  1.29491e-03  2.31408e-03
2
# CELL(abcABC):  188.97261   188.97261   188.97261    90.00000    90.00000    90.00000  Step:        6200  Bead:       1 velocities{atomic_unit}  cell{atomic_unit}
       O  2.14243e-04 -5.25744e-04  6.95457e-04
       H  6.04307e-03  3.53590e-03  4.53720e-03
2
# CELL(abcABC):  188.97261   188.97261   188.97261    90.00000    90.00000    90.00000  Step:        6400  Bead:       1 velocities{atomic_unit}  cell{atomic_unit}
       O -2.76783e-04  3.38795e-04  4.48349e-04
       H -1.50113e-03 -1.58027e-03  9.48452e-04
2
# CELL(abcABC):  188.97261   188.97261   188.97261    90.00000    90.00000    90.00000  Step:        6600  Bead:       1 velocities{atomic_unit}  cell{atomic_unit}
       O -1.14709e-03 -1.22610e-03  7.97931e-04
       H  6.82117e-04 -1.52549e-03  3.37370e-03
2
# CELL(abcABC):  188.97261   188.97261   188.97261    90.00000    90.00000    90.00000  Step:        6800  Bead:       1 velocities{atomic_unit}  cell{atomic_unit}
       O  2.83094e-04 -1.05045e-03 -4.83065e-04
       H  9.51922e-04 -3.17966e-03  1.17347e-03
2
# CELL(abcABC):  188.97261   188.97261   188.97261    90.00000    90.00000    90.00000  Step:        7000  Bead:       1 velocities{atomic_unit}  cell{atomic_unit}
       O  2.01139e-04  1.15558e-05 -1.21840e-04
       H  1.35606e-03  1.00960e-03  4.49032e-03
2
# CELL(abcABC):  188.97261   188.97261   188.97261    90.00000    90.00000    90.00000  Step:        7200  Bead:       1 velocities{atomic_unit}  cell{atomic_unit}
       O -4.62712e-04 -2.71539e-04 -2.81738e-04
       H -1.45322e-03 -2.06825e-03  3.89949e-03
2
# CELL(abcABC):  188.97261   188.97261   188.97261    90.00000    90.00000    90.00000  Step:        7400  Bead:       1 velocities{atomic_unit}  cell{atomic_unit}
       O -1.63606e-03 -6.36933e-04  5.25087e-04
       H -2.94352e-03 -3.21275e-03 -3.20327e-03
2
# CELL(abcABC):  188.97261   188.97261   188.97261    90.00000    90.00000    90.00000  Step:        7600  Bead:       1 velocities{atomic_unit}  cell{atomic_unit}
       O  1.69629e-04  8.22647e-05 -9.94186e-04
       H  3.28831e-03 -2.78967e-03  2.08892e-04
2
# CELL(abcABC):  188.97261   188.97261   188.97261    90.00000    90.00000    90.00000  Step:        7800  Bead:       1 velocities{atomic_unit}  cell{atomic_unit}
       O  6.27730e-04 -3.28190e-05 -1.15516e-04
       H -6.04894e-04  9.25140e-04 -1.29673e-03
2
# CELL(abcABC):  188.97261   188.97261   188.97261    90.00000    90.00000    90.00000  Step:        8000  Bead:       1 velocities{atomic_unit}  cell{atomic_unit}
       O  1.38580e-03  1.83434e-04  1.72790e-04
       H -3.33010e-03 -1.75115e-04 -4.83198e-03
2
# CELL(abcABC):  188.97261   188.97261   188.97261    90.00000    90.00000    90.00000  Step:        8200  Bead:       1 velocities{atomic_unit}  cell{atomic_unit}
       O  3.74305e-04 -3.27455e-04 -1.47650e-05
       H  1.05005e-03  2.66357e-03  2.84826e-03
2
# CELL(abcABC):  188.97261   188.97261   188.97261    90.00000    90.00000    90.00000  Step:        8400  Bead:       1 velocities{atomic_unit}  cell{atomic_unit}
       O  3.01335e-05  2.84384e-04  7.64403e-04
       H  3.72258e-03 -6.80905e-04  1.66001e-03
2
# CELL(abcABC):  188.97261   188.97261   188.97261    90.00000    90.00000    90.00000  Step:        8600  Bead:       1 velocities{atomic_unit}  cell{atomic_unit}
       O  7.51965e-04 -1.00332e-04  6.75369e-04
       H  3.88754e-03 -3.94846e-03 -3.55445e-04
2
# CELL(abcABC):  188.97261   188.97261   188.97261    90.00000    90.00000    90.00000  Step:        8800  Bead:       1 velocities{atomic_unit}  cell{atomic_unit}
       O  5.83561e-04  5.55678e-04  1.96907e-03
       H  1.21726e-03 -7.84911e-04  4.61853e-03
2
# CELL(abcABC):  188.97261   188.97261   188.97261    90.00000    90.00000    90.00000  Step:        9000  Bead:       1 velocities{atomic_unit}  cell{atomic_unit}
       O  1.61039e-04  3.13365e-05  2.85701e-04
       H -5.37592e-03  3.68472e-03 -2.04090e-03
2
# CELL(abcABC):  188.97261   188.97261   188.97261    90.00000    90.00000    90.00000  Step:        9200  Bead:       1 velocities{atomic_unit}  cell{atomic_unit}
       O -7.59497e-04  2.91870e-04  1.09075e-03
       H -9.24417e-04  2.16219e-03 -4.42097e-03
2
# CELL(abcABC):  188.97261   188.97261   188.97261    90.00000    90.00000    90.00000  Step:        9400  Bead:       1 velocities{atomic_unit}  cell{atomic_unit}
       O  4.33375e-04  4.28748e-04 -5.27952e-04
       H -2.03481e-04  2.88774e-03  2.07636e-04
2
# CELL(abcABC):  188.97261   188.97261   188.97261    90.00000    90.00000    90.00000  Step:        9600  Bead:       1 velocities{atomic_unit}  cell{atomic_unit}
       O  7.17587e-04  3.43865e-04 -1.32586e-04
       H  2.84106e-03 -8.35936e-04 -2.24601e-03
2
# CELL(abcABC):  188.97261   188.97261   188.97261    90.00000    90.00000    90.00000  Step:        9800  Bead:       1 velocities{atomic_unit}  cell{atomic_unit}
       O -8.05395e-04  8.89409e-05 -5.48768e-04
       H  2.99782e-03 -9.39940e-04  3.07205e-03
2
# CELL(abcABC):  188.97261   188.97261   188.97261    90.00000    90.00000    90.00000  Step:       10000  Bead:       1 velocities{atomic_unit}  cell{atomic_unit}
       O -5.94378e-04  1.48319e-03  4.73957e-04
       H  4.78543e-03  7.15031e-05  3.64536e-03
2
# CELL(abcABC):  188.97261   188.97261   188.97261    90.00000    90.00000    90.00000  Step:       10200  Bead:       1 velocities{atomic_unit}  cell{atomic_unit}
       O -9.62594e-04  5.00489e-04  4.98892e-04
       H  2.35222e-03  3.48901e-03 -4.03688e-04
2
# CELL(abcABC):  188.97261   188.97261   188.97261    90.00000    90.00000    90.00000  Step:       10400  Bead:       1 velocities{atomic_unit}  cell{atomic_unit}
       O  6.60638e-04 -3.22168e-04 -1.49245e-03
       H -1.61925e-03 -3.35735e-03 -2.30894e-03
2
# CELL(abcABC):  188.97261   188.97261   188.97261    90.00000    90.00000    90.00000  Step:       10600  Bead:       1 velocities{atomic_unit}  cell{atomic_unit}
       O  1.55153e-04  1.98654e-04 -3.25175e-04
       H -2.46136e-03 -1.85755e-03 -2.73721e-03
2
# CELL(abcABC):  188.97261   188.97261   188.97261    90.00000    90.00000    90.00000  Step:       10800  Bead:       1 velocities{atomic_unit}  cell{atomic_unit}
       O  5.87057e-04 -4.22794e-04 -1.31016e-03
       H -4.94012e-03 -1.16413e-03 -6.51044e-04
2
# CELL(abcABC):  188.97261   188.97261   188.97261    90.00000    90.00000    90.00000  Step:       11000  Bead:       1 velocities{atomic_unit}  cell{atomic_unit}
       O  9.24302e-04 -2.38597e-04  3.17172e-05
       H  4.76330e-03 -5.49853e-03 -1.22354e-03
2
# CELL(abcABC):  188.97261   188.97261   188.97261    90.00000    90.00000    90.00000  Step:       11200  Bead:       1 velocities{atomic_unit}  cell{atomic_unit}
       O -3.67412e-04 -1.32480e-03  1.41987e-03
       H -3.44050e-04 -3.50895e-03 -3.14011e-03
2
# CELL(abcABC):  188.97261   188.97261   188.97261    90.00000    90.00000    90.00000  Step:       11400  Bead:       1 velocities{atomic_unit}  cell{atomic_unit}
       O -1.24781e-03  4.24518e-04  7.00793e-06
       H -1.59956e-03 -1.41990e-04  5.09805e-03
2
# CELL(abcABC):  188.97261   188.97261   188.97261    90.00000    90.00000    90.00000  Step:       11600  Bead:       1 velocities{atomic_unit}  cell{atomic_unit}
       O  1.26361e-04  4.80463e-04 -2.44516e-04
       H  9.19803e-04  7.68141e-03 -1.90924e-04
2
# CELL(abcABC):  188.97261   188.97261   188.97261    90.00000    90.00000    90.00000  Step:       11800  Bead:       1 velocities{atomic_unit}  cell{atomic_unit}
       O -2.19193e-04  3.96843e-04 -9.75640e-04
       H  4.82608e-04  2.23155e-03  5.91611e-03
2
# CELL(abcABC):  188.97261   188.97261   188.97261    90.00000    90.00000    90.00000  Step:       12000  Bead:       1 velocities{atomic_unit}  cell{atomic_unit}
       O  8.71138e-05 -6.13704e-04  5.68175e-04
       H -2.22557e-03 -3.38788e-03 -4.61534e-03
2
# CELL(abcABC):  188.97261   188.97261   188.97261    90.00000    90.00000    90.00000  Step:       12200  Bead:       1 velocities{atomic_unit}  cell{atomic_unit}
       O -4.62487e-04  5.28563e-04  1.31422e-04
       H -3.93644e-04  4.31736e-03 -2.12556e-03
2
# CELL(abcABC):  188.97261   188.97261   188.97261    90.00000    90.00000    90.00000  Step:       12400  Bead:       1 velocities{atomic_unit}  cell{atomic_unit}
       O  4.48187e-04 -1.65902e-04  2.67892e-04
       H -5.26910e-04  5.51150e-04 -4.11685e-03
2
# CELL(abcABC):  188.97261   188.97261   188.97261    90.00000    90.00000    90.00000  Step:       12600  Bead:       1 velocities{atomic_unit}  cell{atomic_unit}
       O  4.77175e-04  2.17309e-04 -6.88113e-04
       H  1.34306e-03  3.69863e-03  5.08848e-03
2
# CELL(abcABC):  188.97261   188.97261   188.97261    90.00000    90.00000    90.00000  Step:       12800  Bead:       1 velocities{atomic_unit}  cell{atomic_unit}
       O -2.36196e-05  1.09075e-03  6.80365e-04
       H -2.11391e-03 -5.01364e-03 -2.47046e-03
2
# CELL(abcABC):  188.97261   188.97261   188.97261    90.00000    90.00000    90.00000  Step:       13000  Bead:       1 velocities{atomic_unit}  cell{atomic_unit}
       O -5.20037e-04  8.03224e-04  5.19112e-05
       H  4.62122e-03  2.15214e-03 -6.65923e-04
2
# CELL(abcABC):  188.97261   188.97261   188.97261    90.00000    90.00000    90.00000  Step:       13200  Bead:       1 velocities{atomic_unit}  cell{atomic_unit}
       O -6.99341e-04 -9.33045e-04 -5.28756e-04
       H  2.85656e-04  2.69622e-03 -1.85565e-03
2
# CELL(abcABC):  188.97261   188.97261   188.97261    90.00000    90.00000    90.00000  Step:       13400  Bead:       1 velocities{atomic_unit}  cell{atomic_unit}
       O -6.42106e-04 -3.07990e-04 -5.56915e-04
       H  8.64336e-04 -4.74424e-04  2.62356e-03
2
# CELL(abcABC):  188.97261   188.97261   188.97261    90.00000    90.00000    90.00000  Step:       13600  Bead:       1 velocities{atomic_unit}  cell{atomic_unit}
       O  5.15808e-04 -2.59587e-04  3.84875e-04
       H -3.13127e-03  8.52047e-04 -4.31152e-04
2
# CELL(abcABC):  188.97261   188.97261   188.97261    90.00000    90.00000    90.00000  Step:       13800  Bead:       1 velocities{atomic_unit}  cell{atomic_unit}
       O  8.27728e-05 -1.00685e-03  4.46680e-04
       H -1.40120e-03  2.93680e-03  6.91038e-04
2
# CELL(abcABC):  188.97261   188.97261   188.97261    90.00000    90.00000    90.00000  Step:       14000  Bead:       1 velocities{atomic_unit}  cell{atomic_unit}
       O  3.83544e-04  1.25844e-03  1.16103e-03
       H  3.23264e-04  2.23873e-03  2.51254e-03
2
# CELL(abcABC):  188.97261   188.97261   188.97261    90.00000    90.00000    90.00000  Step:       14200  Bead:       1 velocities{atomic_unit}  cell{atomic_unit}
       O  8.03783e-05 -1.63409e-03 -3.85995e-04
       H -2.44758e-04  1.92805e-03 -1.98097e-03
2
# CELL(abcABC):  188.97261   188.97261   188.97261    90.00000    90.00000    90.00000  Step:       14400  Bead:       1 velocities{atomic_unit}  cell{atomic_unit}
       O  1.42685e-03  1.19291e-03  4.00984e-05
       H  2.02015e-03 -5.44858e-06 -1.80624e-03
2
# CELL(abcABC):  188.97261   188.97261   188.97261    90.00000    90.00000    90.00000  Step:       14600  Bead:       1 velocities{atomic_unit}  cell{atomic_unit}
       O -2.89492e-04  2.45215e-04  1.08014e-03
       H -4.87247e-03 -2.43202e-03 -8.42719e-04
2
# CELL(abcABC):  188.97261   188.97261   188.97261    90.00000    90.00000    90.00000  Step:       14800  Bead:       1 velocities{atomic_unit}  cell{atomic_unit}
       O  9.39490e-04  6.58450e-04 -6.63444e-04
       H -1.09645e-03  1.23667e-03  4.64793e-03
2
# CELL(abcABC):  188.97261   188.97261   188.97261    90.00000    90.00000    90.00000  Step:       15000  Bead:       1 velocities{atomic_unit}  cell{atomic_unit}
       O  5.79127e-05 -6.85780e-04 -1.57968e-04
       H  1.54970e-03 -3.21126e-03 -1.67600e-03
2
# CELL(abcABC):  188.97261   188.97261   188.97261    90.00000    90.00000    90.00000  Step:       15200  Bead:       1 velocities{atomic_unit}  cell{atomic_unit}
       O  1.97081e-04 -5.17470e-04  8.70452e-04
       H -3.43888e-04  4.68426e-04 -1.24178e-03
2
# CELL(abcABC):  188.97261   188.97261   188.97261    90.00000    90.00000    90.00000  Step:       15400  Bead:       1 velocities{atomic_unit}  cell{atomic_unit}
       O -6.88799e-04 -4.18442e-04  1.09530e-04
       H  2.21462e-03 -6.09578e-04 -1.57106e-04
2
# CELL(abcABC):  188.97261   188.97261   188.97261    90.00000    90.00000    90.00000  Step:       15600  Bead:       1 velocities{atomic_unit}  cell{atomic_unit}
       O  8.11106e-04 -6.85566e-04 -5.52877e-04
       H -1.87499e-03  6.16505e-03 -3.01506e-03
2
# CELL(abcABC):  188.97261   188.97261   188.97261    90.00000    90.00000    90.00000  Step:       15800  Bead:       1 velocities{atomic_unit}  cell{atomic_unit}
       O -2.64357e-04 -6.62597e-04  4.15013e-04
       H -2.33237e-03 -1.85436e-03 -7.82214e-04
2
# CELL(abcABC):  188.97261   188.97261   188.97261    90.00000    90.00000    90.00000  Step:       16000  Bead:       1 velocities{atomic_unit}  cell{atomic_unit}
       O  1.64372e-04 -6.73625e-04 -7.48593e-04
       H  1.75847e-03  3.10676e-03  5.02361e-04
2
# CELL(abcABC):  188.97261   188.97261   188.97261    90.00000    90.00000    90.00000  Step:       16200  Bead:       1 velocities{atomic_unit}  cell{atomic_unit}
       O -8.02070e-04  2.33167e-03  4.87683e-04
       H  2.55685e-03 -3.92671e-04 -2.07636e-03
2
# CELL(abcABC):  188.97261   188.97261   188.97261    90.00000    90.00000    90.00000  Step:       16400  Bead:       1 velocities{atomic_unit}  cell{atomic_unit}
       O  7.38189e-04 -8.20825e-04  3.45665e-04
       H  2.11694e-03 -2.76325e-03 -2.88770e-03
2
# CELL(abcABC):  188.97261   188.97261   188.97261    90.00000    90.00000    90.00000  Step:       16600  Bead:       1 velocities{atomic_unit}  cell{atomic_unit}
       O -7.02013e-04 -7.01808e-04  4.56801e-04
       H  1.75376e-03  9.70249e-04 -2.08354e-03
2
# CELL(abcABC):  188.97261   188.97261   188.97261    90.00000    90.00000    90.00000  Step:       16800  Bead:       1 velocities{atomic_unit}  cell{atomic_unit}
       O -4.82000e-05 -1.27510e-03 -2.45840e-04
       H -3.75150e-04 -9.94340e-04 -3.81382e-03
2
# CELL(abcABC):  188.97261   188.97261   188.97261    90.00000    90.00000    90.00000  Step:       17000  Bead:       1 velocities{atomic_unit}  cell{atomic_unit}
       O  6.48660e-04  4.57960e-04  4.56457e-04
       H  2.21618e-03 -1.14987e-03 -2.03515e-03
2
# CELL(abcABC):  188.97261   188.97261   188.97261    90.00000    90.00000    90.00000  Step:       17200  Bead:       1 velocities{atomic_unit}  cell{atomic_unit}
       O  2.74217e-04 -2.69160e-04  7.38209e-04
       H  1.40233e-04 -3.07598e-04  1.86413e-03
2
# CELL(abcABC):  188.97261   188.97261   188.97261    90.00000    90.00000    90.00000  Step:       17400  Bead:       1 velocities{atomic_unit}  cell{atomic_unit}
       O  1.84354e-03 -1.60923e-04  3.62268e-04
       H -3.34211e-03  1.05653e-03  1.09104e-03
2
# CELL(abcABC):  188.97261   188.97261   188.97261    90.00000    90.00000    90.00000  Step:       17600  Bead:       1 velocities{atomic_unit}  cell{atomic_unit}
       O -1.55660e-04 -4.16867e-04  6.89479e-04
       H  2.14800e-04  8.90244e-05  4.59411e-03
2
# CELL(abcABC):  188.97261   188.97261   188.97261    90.00000    90.00000    90.00000  Step:       17800  Bead:       1 velocities{atomic_unit}  cell{atomic_unit}
       O  7.82500e-04 -4.09694e-04 -8.01845e-04
       H  6.92312e-04  1.86199e-03  1.15308e-03
2
# CELL(abcABC):  188.97261   188.97261   188.97261    90.00000    90.00000    90.00000  Step:       18000  Bead:       1 velocities{atomic_unit}  cell{atomic_unit}
       O -2.52367e-04 -2.51364e-05 -1.10619e-03
       H -5.04484e-03  2.93913e-03  3.78120e-03
2
# CELL(abcABC):  188.97261   188.97261   188.97261    90.00000    90.00000    90.00000  Step:       18200  Bead:       1 velocities{atomic_unit}  cell{atomic_unit}
       O  4.71061e-04  1.82693e-04 -8.94504e-04
       H  2.60725e-03  4.16227e-04 -2.37037e-03
2
# CELL(abcABC):  188.97261   188.97261   188.97261    90.00000    90.00000    90.00000  Step:       18400  Bead:       1 velocities{atomic_unit}  cell{atomic_unit}
       O -9.84298e-04 -3.00543e-04 -7.86750e-05
       H -7.02864e-04  1.44002e-03 -3.13350e-03
2
# CELL(abcABC):  188.97261   188.97261   188.97261    90.00000    90.00000    90.00000  Step:       18600  Bead:       1 velocities{atomic_unit}  cell{atomic_unit}
       O -1.47242e-04  3.11275e-04  2.45357e-04
       H -2.57304e-03  2.02935e-03 -5.02897e-03
2
# CELL(abcABC):  188.97261   188.97261   188.97261    90.00000    90.00000    90.00000  Step:       18800  Bead:       1 velocities{atomic_unit}  cell{atomic_unit}
       O -5.89969e-06 -3.27147e-04 -4.86994e-04
       H  4.66182e-03  1.95903e-03 -2.18903e-03
2
# CELL(abcABC):  188.97261   188.97261   188.97261    90.00000    90.00000    90.00000  Step:       19000  Bead:       1 velocities{atomic_unit}  cell{atomic_unit}
       O -5.65555e-04 -6.20996e-04  7.23858e-04
       H -3.27548e-03  2.61478e-03  1.46532e-03
2
# CELL(abcABC):  188.97261   188.97261   188.97261    90.00000    90.00000    90.00000  Step:       19200  Bead:       1 velocities{atomic_unit}  cell{atomic_unit}
       O  1.08814e-03 -2.36640e-04 -1.66018e-04
       H  2.40835e-03  1.77934e-03  1.06301e-03
2
# CELL(abcABC):  188.97261   188.97261   188.97261    90.00000    90.00000    90.00000  Step:       19400  Bead:       1 velocities{atomic_unit}  cell{atomic_unit}
       O  5.75922e-04 -2.75198e-04  6.58276e-04
       H -9.00992e-04 -1.20191e-03 -7.62929e-05
2
# CELL(abcABC):  188.97261   188.97261   188.97261    90.00000    90.00000    90.00000  Step:       19600  Bead:       1 velocities{atomic_unit}  cell{atomic_unit}
       O  8.82609e-04  7.51572e-04 -1.50895e-04
       H  4.30196e-03  1.78604e-03 -2.46609e-03
2
# CELL(abcABC):  188.97261   188.97261   188.97261    90.00000    90.00000    90.00000  Step:       19800  Bead:       1 velocities{atomic_unit}  cell{atomic_unit}
       O  6.88055e-04  3.60452e-04 -3.88628e-04
       H  3.99629e-03 -1.85199e-03 -9.94040e-04
2
# CELL(abcABC):  188.97261   188.97261   188.97261    90.00000    90.00000    90.00000  Step:       20000  Bead:       1 velocities{atomic_unit}  cell{atomic_unit}
       O  1.65805e-04 -1.24883e-03  4.60873e-04
       H  1.41183e-03 -2.82246e-03  1.12273e-03
2
# CELL(abcABC):  188.97261   188.97261   188.97261    90.00000    90.00000    90.00000  Step:       20200  Bead:       1 velocities{atomic_unit}  cell{atomic_unit}
       O  3.37172e-04  9.85962e-04 -3.23607e-04
       H  4.41728e-03 -2.42251e-03  2.10040e-03
2
# CELL(abcABC):  188.97261   188.97261   188.97261    90.00000    90.00000    90.00000  Step:       20400  Bead:       1 velocities{atomic_unit}  cell{atomic_unit}
       O -3.38537e-04 -6.01467e-04  2.30394e-04
       H  4.25611e-04 -1.28569e-03 -6.76479e-04
2
# CELL(abcABC):  188.97261   188.97261   188.97261    90.00000    90.00000    90.00000  Step:       20600  Bead:       1 velocities{atomic_unit}  cell{atomic_unit}
       O -1.06481e-03  5.74079e-04 -9.00558e-04
       H  3.06580e-03  1.50703e-03  1.34419e-05
2
# CELL(abcABC):  188.97261   188.97261   188.97261    90.00000    90.00000    90.00000  Step:       20800  Bead:       1 velocities{atomic_unit}  cell{atomic_unit}
       O -4.68734e-04  7.13978e-05  1.58830e-05
       H -2.71028e-03  1.22639e-03  4.27149e-04
2
# CELL(abcABC):  188.97261   188.97261   188.97261    90.00000    90.00000    90.00000  Step:       21000  Bead:       1 velocities{atomic_unit}  cell{atomic_unit}
       O -1.11926e-04 -8.66247e-04  7.00376e-04
       H -2.56151e-03  1.27753e-03  1.45460e-03
2
# CELL(abcABC):  188.97261   188.97261   188.97261    90.00000    90.00000    90.00000  Step:       21200  Bead:       1 velocities{atomic_unit}  cell{atomic_unit}
       O -1.16458e-04 -9.74942e-04 -6.31022e-04
       H  4.10914e-03 -2.19886e-03 -1.09914e-03
2
# CELL(abcABC):  188.97261   188.97261   188.97261    90.00000    90.00000    90.00000  Step:       21400  Bead:       1 velocities{atomic_unit}  cell{atomic_unit}
       O  3.03758e-04 -5.30346e-04  9.96427e-04
       H  3.51041e-03  2.06429e-03 -3.64224e-03
2
# CELL(abcABC):  188.97261   188.97261   188.97261    90.00000    90.00000    90.00000  Step:       21600  Bead:       1 velocities{atomic_unit}  cell{atomic_unit}
       O  8.54897e-04  1.16983e-04 -6.06383e-04
       H -4.44484e-03 -1.09750e-03  2.74468e-03
2
# CELL(abcABC):  188.97261   188.97261   188.97261    90.00000    90.00000    90.00000  Step:       21800  Bead:       1 velocities{atomic_unit}  cell{atomic_unit}
       O  1.01490e-05 -4.41689e-04 -3.23662e-04
       H -2.41718e-03 -1.77466e-03  2.34340e-03
2
# CELL(abcABC):  188.97261   188.97261   188.97261    90.00000    90.00000    90.00000  Step:       22000  Bead:       1 velocities{atomic_unit}  cell{atomic_unit}
       O -1.11060e-03  5.47797e-04 -6.92738e-04
       H  1.61235e-03  5.81396e-04 -8.61583e-05
2
# CELL(abcABC):  188.97261   188.97261   188.97261    90.00000    90.00000    90.00000  Step:       22200  Bead:       1 velocities{atomic_unit}  cell{atomic_unit}
       O  7.67271e-04  5.18878e-04 -4.64774e-04
       H  5.94139e-04 -1.89656e-03  1.33984e-04
2
# CELL(abcABC):  188.97261   188.97261   188.97261    90.00000    90.00000    90.00000  Step:       22400  Bead:       1 velocities{atomic_unit}  cell{atomic_unit}
       O  3.26232e-05 -1.05079e-03  8.36684e-04
       H -2.06779e-03 -1.51583e-03  1.67206e-03
2
# CELL(abcABC):  188.97261   188.97261   188.97261    90.00000    90.00000    90.00000  Step:       22600  Bead:       1 velocities{atomic_unit}  cell{atomic_unit}
       O  9.44494e-04  7.33349e-04  7.30451e-04
       H  2.16353e-03  6.98200e-04  9.43678e-04
2