LAMMPS data file via write_data, version 17 Apr 2024, timestep = 30032, units = real

1536 atoms
2 atom types
1024 bonds
1 bond types
512 angles
1 angle types

0 24.8 xlo xhi
0 24.8 ylo yhi
0 100 zlo zhi

Masses

1 15.9994
2 1.008

Atoms # full

734 245 2 0.52422 9.123248215479888 8.632250203986757 36.35451813296571 0 0 0
733 245 1 -1.04844 8.995715058843038 8.945843170763993 37.2498542125451 0 0 0
572 191 2 0.52422 9.761081219946107 10.703804124905416 37.37884700611272 0 0 0
83 28 2 0.52422 13.47862062959372 11.278459734614298 37.3596542215681 0 0 0
1175 392 2 0.52422 19.773988523098378 11.282831974233154 36.9445743042358 0 0 0
1447 483 1 -1.04844 24.50063058226817 12.06674381235058 36.73905533824517 -1 0 0
1449 483 2 0.52422 23.796828196061803 12.03655536850104 37.38711612555887 -1 0 0
720 240 2 0.52422 0.9671253758250885 14.753718437441014 36.56760744609626 0 0 0
413 138 2 0.52422 13.858101980388208 14.877373033394809 37.02370493672031 0 0 0
1448 483 2 0.52422 24.648782029655564 13.000424419493028 36.58897679202115 -1 0 0
719 240 2 0.52422 24.570449917139346 15.51605281461658 36.0396780822387 -1 0 0
718 240 1 -1.04844 0.012076313039768274 14.719969839692137 36.51307056479501 0 0 0
1517 506 2 0.52422 15.409190204560026 20.751619018671168 37.45756773059474 0 0 0
963 321 2 0.52422 15.757207771892336 23.309882638679678 37.24923308256314 0 0 0
961 321 1 -1.04844 15.948668130772484 24.242479027388104 37.348424950670456 0 0 0
412 138 1 -1.04844 14.697068155286779 14.630561145629233 37.41287266819558 0 0 0
1096 366 1 -1.04844 5.523293469383713 1.237937932111129 42.00942414887207 1 1 0
1157 386 2 0.52422 1.3475794771772829 4.1775644596260015 41.66185758050899 0 1 0
1158 386 2 0.52422 2.0274898333994997 5.274958398605883 42.45264433292475 0 1 0
1156 386 1 -1.04844 1.2662737504992703 5.101383336719512 41.89888109521246 0 1 0
1018 340 1 -1.04844 0.956601436398116 2.0625271363617137 40.46810952492714 0 1 0
1159 387 1 -1.04844 5.717186563073295 5.863675525062639 43.79330987426613 0 0 0
1019 340 2 0.52422 0.47487605765910434 1.6064106699938392 41.15813148212091 0 1 0
1020 340 2 0.52422 1.85093040043475 1.728774834809916 40.538941034587324 0 1 0
1097 366 2 0.52422 5.627700737089065 2.1538043133464098 42.267338489328424 1 1 0
629 210 2 0.52422 4.020388017587857 0.802292769197497 41.30686715964617 0 1 0
1098 366 2 0.52422 6.406293284470437 0.9525656279645524 41.774677783512395 1 1 0
1160 387 2 0.52422 6.075007971464464 5.097627230908513 43.344571952330675 0 0 0
628 210 1 -1.04844 3.1163058210894965 0.5272949252312239 41.15440905172688 0 1 0
1013 338 2 0.52422 4.660240316562747 0.24718891053897105 43.63394445759741 0 1 0
1458 486 2 0.52422 11.210782260876387 2.0365557035137773 39.58122382313716 0 0 0
137 46 2 0.52422 9.898245092846532 3.4348293586862777 42.46072722794244 0 1 0
1456 486 1 -1.04844 10.433103340923346 1.4918281730573055 39.70254722762788 0 0 0
136 46 1 -1.04844 9.469523775493217 2.5864116514493407 42.34840037902575 0 1 0
138 46 2 0.52422 9.928573828406904 2.0036076311053788 42.95325108941811 0 1 0
404 135 2 0.52422 6.835240422383161 4.119143778951016 41.60192028317854 0 1 0
831 277 2 0.52422 7.338474400382702 5.654380485390071 39.43949686962266 0 0 0
829 277 1 -1.04844 7.36794989671026 4.776113297606184 39.81898313344375 0 0 0
403 135 1 -1.04844 6.9778082028087285 3.6184032943580777 42.405142098375165 0 1 0
405 135 2 0.52422 7.883009344233456 3.313958976647077 42.34067129745537 0 1 0
1457 486 2 0.52422 10.141091074745209 1.6854082465342837 40.59332636966755 0 0 0
90 30 2 0.52422 8.663277104409582 0.14896396198869324 42.36715710564091 0 1 0
830 277 2 0.52422 8.088917205549667 4.341787843170553 39.363132938333564 0 0 0
1109 370 2 0.52422 9.690640206815852 2.845520090158031 38.4951966353566 0 0 0
1108 370 1 -1.04844 9.092259422784998 3.4075773149177055 38.002993386044665 0 0 0
1110 370 2 0.52422 8.350915740266494 2.840688077578035 37.79020702166007 0 0 0
4 2 1 -1.04844 13.196174950864796 3.441682023636344 42.575802640814636 0 1 0
6 2 2 0.52422 13.717794219902093 4.243896973581769 42.600223584725626 0 1 0
5 2 2 0.52422 12.908082154075537 3.3703578979541717 41.66577666151339 0 1 0
193 65 1 -1.04844 14.973972648249074 1.5579650295072525 43.353147939025405 0 0 0
194 65 2 0.52422 14.26662896565377 2.087314123983509 42.9847912528769 0 0 0
563 188 2 0.52422 13.922420682686113 5.546368762751803 40.713786812933 0 0 0
564 188 2 0.52422 15.017094129585706 4.534812597408982 40.44856973466631 0 0 0
562 188 1 -1.04844 14.382757492445577 5.097612631669523 40.004604261164324 0 0 0
1055 352 2 0.52422 13.222926033937904 2.3072280890135564 39.70384532483726 0 1 0
1056 352 2 0.52422 12.999704458820846 3.783896763439554 39.455819058465416 0 1 0
1054 352 1 -1.04844 12.534348990509116 2.9697649309863987 39.647823224718344 0 1 0
315 105 2 0.52422 15.991246380539964 2.6925153767692738 41.22538315622087 -1 0 0
313 105 1 -1.04844 16.32485255045123 3.5696258872397673 41.41410502797512 -1 0 0
1426 476 1 -1.04844 17.765851356074474 2.292193332717105 39.23747843701317 -1 1 0
1428 476 2 0.52422 17.708376001325785 2.8326691701231312 40.02539620134354 -1 1 0
314 105 2 0.52422 16.733136038730038 3.490733057903975 42.276260751434314 -1 0 0
502 168 1 -1.04844 15.002590993667383 1.819267994258754 38.79632356874129 0 1 0
504 168 2 0.52422 15.891821095847051 2.158563620469684 38.898206975428536 0 1 0
503 168 2 0.52422 14.998376043153051 1.4136142136036383 37.929340806483516 0 1 0
872 291 2 0.52422 17.9749881823807 0.479217316388973 38.84987809303401 0 1 0
195 65 2 0.52422 15.588258925259511 2.19666163396162 43.71501929177535 0 0 0
1205 402 2 0.52422 23.099645325756885 3.2389878634686085 38.82420180402215 0 0 0
1204 402 1 -1.04844 23.66497855566885 3.8503021584226915 39.29635116223805 0 0 0
423 141 2 0.52422 24.421138034595856 6.045969814351608 42.14658640403879 0 0 0
1206 402 2 0.52422 24.443544694600767 3.337836759219503 39.51417179147758 0 0 0
1267 423 1 -1.04844 19.895315541495002 5.673325784626123 40.15023747947629 0 0 0
1144 382 1 -1.04844 20.716553187769414 0.2854334944235101 42.75081469415898 0 1 0
1504 502 1 -1.04844 21.20565780813852 5.177384522981983 42.663765586920455 -1 1 0
1505 502 2 0.52422 22.12139369378275 5.455770267417145 42.67645675401388 -1 1 0
903 301 2 0.52422 23.15352424367084 6.415671367773898 38.86097148150746 0 0 0
1427 476 2 0.52422 18.629627609845393 2.488134586326581 38.87453279136307 -1 1 0
992 331 2 0.52422 20.667969199517554 3.01796586449031 40.47265525313418 0 0 0
993 331 2 0.52422 21.10646947758487 2.25474181854827 39.24094816868164 0 0 0
991 331 1 -1.04844 20.478017795760984 2.9116496615242844 39.54053537773881 0 0 0
1269 423 2 0.52422 19.935012383118732 4.811486381183499 39.73564259192775 0 0 0
1268 423 2 0.52422 20.670343808497655 6.131750195399515 39.82556814467859 0 0 0
1506 502 2 0.52422 20.85943077205569 5.5285113928817164 41.84335795356669 -1 1 0
117 39 2 0.52422 22.079924165288148 0.4918084659311982 39.23507138900324 0 0 0
115 39 1 -1.04844 22.546079307525133 1.276282791987964 38.94605270818514 0 0 0
116 39 2 0.52422 23.364698797730906 1.2653882889342343 39.442011699766574 0 0 0
1513 505 1 -1.04844 24.73073676076107 0.2947959971957352 43.24293715849188 0 1 0
312 104 2 0.52422 19.992658630332123 2.1216745140854267 43.22810284521627 0 1 0
310 104 1 -1.04844 19.574395588430228 2.9752455424728987 43.34081682645346 0 1 0
311 104 2 0.52422 20.25766212515985 3.6082978657622546 43.12030938886249 0 1 0
1161 387 2 0.52422 6.079809952975349 6.611289078748636 43.31811505343458 0 0 0
560 187 2 0.52422 2.3503226341486694 8.042542694855793 41.83615705288927 0 0 0
772 258 1 -1.04844 4.799579150322562 10.23063178941617 42.387723789620196 1 0 0
773 258 2 0.52422 4.8210385246805245 10.5476696280369 41.48480719203369 1 0 0
774 258 2 0.52422 4.170930080518652 9.508940616993046 42.37379329301992 1 0 0
393 131 2 0.52422 0.9912491793398764 10.919616436457835 37.88208024114265 0 0 0
391 131 1 -1.04844 1.4263808456594742 10.498150860490254 38.62320040289483 0 0 0
392 131 2 0.52422 2.339282781522207 10.778109172267726 38.55637719848667 0 0 0
561 187 2 0.52422 1.560103367565229 9.323688714691482 41.67456005678857 0 0 0
559 187 1 -1.04844 2.3069498049658117 8.948753941177175 42.141332146713886 0 0 0
233 78 2 0.52422 0.8375541095215331 8.799326455078438 43.433615215258385 0 0 0
79 27 1 -1.04844 4.392629792843793 11.095404998289231 39.71713543618283 0 0 0
81 27 2 0.52422 5.077877556661463 10.791056384125458 39.12212341584853 0 0 0
80 27 2 0.52422 4.582018494861263 12.024800500358603 39.845928985921454 0 0 0
828 276 2 0.52422 5.974621291257007 10.469076907397916 43.69573700115945 0 0 0
1167 389 2 0.52422 1.2745231611896628 11.702632856057221 40.09370892964366 0 0 0
603 201 2 0.52422 3.1403639128300056 11.725355029507778 43.40855741618085 1 0 0
867 289 2 0.52422 6.0199889380413705 8.716101282895849 42.332879584022066 0 0 0
372 124 2 0.52422 0.13675972222243113 9.893304333862204 39.78893200123564 0 0 0
327 109 2 0.52422 9.745994814320552 6.344569168118065 39.02921966759617 0 0 0
698 233 2 0.52422 7.507374041123064 9.822387197935033 38.09846944880103 0 0 0
945 315 2 0.52422 9.931415957145 7.3208052758070945 42.83814097834333 0 0 0
316 106 1 -1.04844 6.914850049586962 7.507129671176189 39.57922615527914 0 0 0
317 106 2 0.52422 6.93526460389978 7.61027519193507 40.53063368062186 0 0 0
1115 372 2 0.52422 10.896992013689326 9.790001900315835 40.64368169548044 0 0 0
1114 372 1 -1.04844 10.671189761069567 10.718270183513784 40.58398839477929 0 0 0
318 106 2 0.52422 6.490197497939897 8.303586327018417 39.26054303456067 0 0 0
699 233 2 0.52422 7.296040769486126 10.294880158537284 39.52113733968515 0 0 0
697 233 1 -1.04844 6.8218767911114995 10.014545954010316 38.73831348429848 0 0 0
573 191 2 0.52422 10.021921940471149 11.533792693091476 38.61778871751504 0 0 0
1230 410 2 0.52422 8.684991072301834 10.886662998735927 41.332437790167006 0 0 0
1229 410 2 0.52422 7.519671501304659 11.599756009783745 41.98468307966222 0 0 0
1228 410 1 -1.04844 7.840704041014054 11.29298874916373 41.13670674911272 0 0 0
866 289 2 0.52422 7.362696912841266 8.161309770416812 42.758599126608715 0 0 0
943 315 1 -1.04844 10.111694317040644 8.246910141069606 42.67670554366293 0 0 0
865 289 1 -1.04844 6.585445755280099 7.949165589160571 42.241774710829965 0 0 0
1116 372 2 0.52422 11.18913377578492 11.1359769082685 41.27209234610973 0 0 0
325 109 1 -1.04844 9.691939396461287 7.298806335585739 39.08157692117988 0 0 0
326 109 2 0.52422 8.843543741975777 7.46902435905942 39.490823159209285 0 0 0
735 245 2 0.52422 9.573496239847547 8.397611312492508 37.78074277388178 0 0 0
571 191 1 -1.04844 10.138935838931435 11.534455953427297 37.66776806009594 0 0 0
944 315 2 0.52422 10.359503253191665 8.59595673157923 43.532853365685604 0 0 0
84 28 2 0.52422 12.118547931241979 10.984665849024912 37.956130472740824 0 0 0
82 28 1 -1.04844 12.981627147238349 10.596719173680563 37.811826529372844 0 0 0
875 292 2 0.52422 15.443179023139944 8.402389512882541 39.68281561958588 0 0 0
641 214 2 0.52422 12.214829293036619 6.471408567471364 42.29821891004737 0 0 0
417 139 2 0.52422 13.506355885702176 9.981705929910323 39.37641489747272 0 0 0
415 139 1 -1.04844 13.814508734761162 9.458325129328463 40.116243506224826 0 0 0
416 139 2 0.52422 14.078261949758577 10.102908987403604 40.77288491077502 0 0 0
642 214 2 0.52422 13.596902770246158 6.843129157292306 42.791769415479564 0 0 0
640 214 1 -1.04844 13.13424514924715 6.211261931601293 42.241384361562645 0 0 0
874 292 1 -1.04844 16.14071038862695 7.751337734984243 39.75906238145142 0 0 0
209 70 2 0.52422 17.370554395310844 7.3192954085391 41.108797604236095 0 0 0
1442 481 2 0.52422 15.715937167466059 12.36035472123679 39.79340900507474 0 0 0
876 292 2 0.52422 15.72136528990564 6.922254735564297 39.528838464831715 0 0 0
144 48 2 0.52422 17.60575010209714 6.864236779093229 43.58889675467528 0 1 0
1376 459 2 0.52422 17.837973147881925 8.689883931060058 39.439742678961196 0 0 0
208 70 1 -1.04844 18.062546200975696 7.29232147728693 41.76959379521714 0 0 0
47 16 2 0.52422 18.58506459779121 8.636974102552813 42.99044131310549 0 0 0
44 15 2 0.52422 17.541814346983237 10.85558687272661 43.71181976320952 -1 0 0
45 15 2 0.52422 17.772186899093715 12.346874693125798 43.8338217682234 -1 0 0
43 15 1 -1.04844 17.078530915309106 11.692153065838514 43.753741395634364 -1 0 0
421 141 1 -1.04844 23.67738823671021 6.645859071980831 42.203163735600626 0 0 0
422 141 2 0.52422 23.63008003512326 7.051771482972487 41.33758362837907 0 0 0
901 301 1 -1.04844 22.67449412542593 6.909646862393873 39.526366325478506 0 0 0
853 285 1 -1.04844 19.393115487070123 11.539912115262455 40.294263096709194 0 0 0
854 285 2 0.52422 19.257205461779236 10.744206716328907 40.80866887677918 0 0 0
210 70 2 0.52422 18.75403715047062 6.763549266303582 41.37150827675772 0 0 0
855 285 2 0.52422 19.601825631987065 11.22450261313281 39.414951546596676 0 0 0
1377 459 2 0.52422 18.609755193327167 7.67670977645284 38.621374880788316 0 0 0
902 301 2 0.52422 22.864493276020696 7.826526293421544 39.32771001073676 0 0 0
371 124 2 0.52422 23.59373252635504 10.587377213832728 39.869157817880506 -1 0 0
370 124 1 -1.04844 24.199395396469132 10.049352838193773 40.378995227079905 -1 0 0
1384 462 1 -1.04844 22.701560446215165 11.841114406867366 38.79064681003987 -1 0 0
1386 462 2 0.52422 21.83427283193949 11.482965485896917 38.60150798866452 -1 0 0
234 78 2 0.52422 24.358704419064022 7.9893480140194875 43.45294633149309 -1 0 0
771 257 2 0.52422 22.459841081736517 10.477904909245739 42.351902839881426 0 0 0
48 16 2 0.52422 19.574194336384913 9.75289065019828 43.251684668496615 0 0 0
770 257 2 0.52422 21.99023132092651 9.383774375310544 43.28691113721697 0 0 0
769 257 1 -1.04844 21.689866067133845 10.169065348015137 42.829384475867315 0 0 0
1176 392 2 0.52422 19.996588016139558 9.907025393211589 37.535760388896804 0 0 0
46 16 1 -1.04844 18.728565114089214 9.408322793867148 43.538766731847126 0 0 0
1375 459 1 -1.04844 18.710646768560444 8.503182171196496 39.09359954636963 0 0 0
1174 392 1 -1.04844 20.14594439487644 10.837114824154872 37.7056373492494 0 0 0
1485 495 2 0.52422 5.257796838688208 13.620529109397216 43.79974716717996 0 0 0
1166 389 2 0.52422 0.2862873663289049 12.812352935198115 40.38320303446519 0 0 0
1165 389 1 -1.04844 1.1889262842915103 12.54030059406491 40.54892100474858 0 0 0
113 38 2 0.52422 2.534768285575823 15.022496951905033 39.0583889873674 0 0 0
112 38 1 -1.04844 2.3251342908089794 15.217713614770725 38.14505664408566 0 0 0
114 38 2 0.52422 2.7108691586654308 16.079786735404117 37.98926686125417 0 0 0
1136 379 2 0.52422 2.369656434549874 13.901005910664354 40.586113178412916 0 0 0
1483 495 1 -1.04844 5.973906740555149 13.23768410747357 43.292945251858846 0 0 0
190 64 1 -1.04844 5.22933499181225 13.763138847982125 40.679474070869425 0 0 0
191 64 2 0.52422 5.926221767242781 14.340193259019314 40.367081651113565 0 0 0
1137 379 2 0.52422 3.727355832996999 14.501046731958024 40.88360066244562 0 0 0
192 64 2 0.52422 5.458854380478304 13.5812080101095 41.590766737690174 0 0 0
244 82 1 -1.04844 3.9132724505588885 17.926787447649115 38.6045306184452 0 0 0
245 82 2 0.52422 4.807534815026565 17.714223013716826 38.337429385387495 0 0 0
1135 379 1 -1.04844 2.8197645733123338 14.738859658367312 40.69398237170715 0 0 0
246 82 2 0.52422 3.952757257227371 17.973246051296773 39.55978682301818 0 0 0
686 229 2 0.52422 2.9669017361498766 19.046713099732006 42.183064988584626 0 0 0
717 239 2 0.52422 2.5415927593292515 15.068943410991082 42.516045353628996 1 0 0
687 229 2 0.52422 3.813061254992718 17.87174328907839 41.74107449882924 0 0 0
1209 403 2 0.52422 1.094425127936229 16.562295532114735 40.76381722219198 0 0 0
1207 403 1 -1.04844 0.4714315909943502 17.19883666369397 40.413208741684365 0 0 0
367 123 1 -1.04844 4.676466358018219 16.708829607861944 42.84848182012842 0 0 0
715 239 1 -1.04844 2.321780636369506 14.880230410451155 43.42835125775007 1 0 0
368 123 2 0.52422 4.816074178107331 16.435873825743435 43.75525448236085 0 0 0
369 123 2 0.52422 5.500849265705284 17.122651069639904 42.59279360077211 0 0 0
1298 433 2 0.52422 8.681879893874754 12.660101252029994 39.895832463242385 0 0 0
1297 433 1 -1.04844 8.988916929100403 13.3809736278553 39.346011321798386 0 0 0
1299 433 2 0.52422 9.14225987938439 12.981323152665807 38.48985868007226 0 0 0
1334 445 2 0.52422 8.17324574684216 17.4352156159834 42.68582940826484 0 0 0
1333 445 1 -1.04844 8.668567409505332 16.713736393032548 42.29807169040027 0 0 0
9 3 2 0.52422 9.098069305785478 15.392330570718551 43.554207384809466 0 0 0
17 6 2 0.52422 8.175514679487186 14.702001940504724 39.94290602443605 0 0 0
1335 445 2 0.52422 9.484858776914587 17.115573799865434 42.0007049084547 0 0 0
16 6 1 -1.04844 7.536680879044956 15.337501502953433 40.265804833776706 0 0 0
18 6 2 0.52422 7.945088703228371 15.713255911495324 41.04570452805384 0 0 0
1233 411 2 0.52422 10.411604522057692 13.143327870250397 43.2969104870452 0 0 0
1231 411 1 -1.04844 10.977538671724735 12.400249350882682 43.08766251108697 0 0 0
1232 411 2 0.52422 11.53984918268855 12.718268451783901 42.381332113061575 0 0 0
1251 417 2 0.52422 7.013614653513335 16.968026710205862 38.84546395540303 0 0 0
69 23 2 0.52422 12.341732209739186 17.17620386640793 40.66578945652747 0 0 0
68 23 2 0.52422 12.651136432343108 15.754843402189005 40.24638640451139 0 0 0
1429 477 1 -1.04844 11.235496165025012 18.20787389576635 41.808368346315646 0 0 0
1431 477 2 0.52422 11.456783997526632 18.38609742547626 42.722425201439194 0 0 0
1249 417 1 -1.04844 6.749846233022304 17.785261063517705 38.422632883276144 0 0 0
547 183 1 -1.04844 12.882296337199314 13.815732026573453 41.37251329171665 0 0 0
1443 481 2 0.52422 14.893445347575383 13.395136181785906 39.055418650780425 0 0 0
548 183 2 0.52422 13.360009659807762 14.335470007450674 42.01896070999309 0 0 0
549 183 2 0.52422 13.554213489972568 13.520399260028542 40.7580722095547 0 0 0
1441 481 1 -1.04844 14.92382073888436 12.892345257874146 39.86936613158068 0 0 0
67 23 1 -1.04844 12.687218143106797 16.66009384682044 39.937433874363016 0 0 0
338 113 2 0.52422 14.525999246694964 16.69130179140921 39.40364034540267 0 0 0
1120 374 1 -1.04844 16.564879298697896 15.058426280603468 41.09713160051217 0 0 0
1122 374 2 0.52422 15.833823080015657 14.534705371210023 41.42501124852753 0 0 0
1121 374 2 0.52422 16.655561791727706 15.768381206078532 41.73271994428567 0 0 0
337 113 1 -1.04844 15.433815380474003 16.615562772497032 39.109760480092525 0 0 0
339 113 2 0.52422 15.874438902273035 16.13764514099474 39.812382362927124 0 0 0
425 142 2 0.52422 18.258558475980287 14.690431356933987 40.63237476102586 0 0 0
414 138 2 0.52422 15.080881071941858 15.458762418620706 37.70097371123292 0 0 0
958 320 1 -1.04844 14.048774933852497 15.396095676047612 43.61032667638749 0 0 0
1351 451 1 -1.04844 17.660852455841976 17.370360616688153 42.543872856365034 0 0 0
1353 451 2 0.52422 16.885291307444586 17.921144088196666 42.65052356252755 0 0 0
474 158 2 0.52422 16.125932280912103 18.372090245796503 38.69644623399049 0 -1 0
1352 451 2 0.52422 18.148221089470535 17.778163958114508 41.828051365591556 0 0 0
1153 385 1 -1.04844 20.01230753866911 23.435182317966326 48.829373432347765 0 0 0
1385 462 2 0.52422 22.535388586989942 12.56782681003908 39.39106986429558 -1 0 0
688 230 1 -1.04844 18.78807124410693 14.009954423695307 43.901318842926706 0 0 0
426 142 2 0.52422 18.98523560122326 13.376556469856048 40.43854846561846 0 0 0
424 142 1 -1.04844 19.12947601360588 14.32169350042377 40.48483822844132 0 0 0
690 230 2 0.52422 19.677930340909974 14.30007251424091 43.70078356141077 0 0 0
354 118 2 0.52422 20.202307546817917 14.885058099866487 41.7739873082267 0 0 0
352 118 1 -1.04844 21.003672612666744 14.949214952786882 42.29353540035124 0 0 0
353 118 2 0.52422 21.611401620756233 14.340581460440372 41.87346083884721 0 0 0
1208 403 2 0.52422 24.68656035180002 16.682059179857298 39.85904400211035 -1 0 0
498 166 2 0.52422 24.077723942168983 14.984480821090552 38.595913957214805 -1 0 0
662 221 2 0.52422 23.374376741417755 14.28873261341565 40.6546153927881 0 0 0
496 166 1 -1.04844 23.543283248433504 15.343805813576159 39.30407402862312 -1 0 0
228 76 2 0.52422 22.857026322202795 17.949577939927643 41.27343400295659 -1 0 0
226 76 1 -1.04844 21.962335682317118 17.887490970617453 41.60795733307902 -1 0 0
497 166 2 0.52422 22.6890420557379 15.503408974308355 38.90278770755204 -1 0 0
458 153 2 0.52422 20.66118937947627 15.167897059253571 37.798747605849236 -1 0 0
457 153 1 -1.04844 20.996343922113923 15.396643252775261 38.66568388437673 -1 0 0
459 153 2 0.52422 20.366719374080628 15.012085471277585 39.27553648032183 -1 0 0
661 221 1 -1.04844 23.353154420406195 13.628141645216422 41.34700333686163 0 0 0
227 76 2 0.52422 22.053956183773956 17.462777767021226 42.46086789038779 -1 0 0
663 221 2 0.52422 23.610940109042115 14.1013221713495 42.13812822075923 0 0 0
409 137 1 -1.04844 19.115135165726507 17.97225690815235 40.27990772629503 0 0 0
411 137 2 0.52422 19.991450018670758 17.678446289728416 40.528864484185455 0 0 0
13 5 1 -1.04844 1.5868272699099957 19.45741091645134 39.237588440681506 0 0 0
1409 470 2 0.52422 0.6242053283189082 18.948469217936534 41.68913900626293 1 0 0
1408 470 1 -1.04844 0.06380365066945415 19.724470209697063 41.68707266267193 1 0 0
1274 425 2 0.52422 4.524829123075386 20.202094996589775 41.15639349299457 0 0 0
685 229 1 -1.04844 3.3046015662198176 18.608433328146447 41.40197492231796 0 0 0
1022 341 2 0.52422 3.9544281889215966 21.61964995022791 38.62331781094109 0 0 0
1275 425 2 0.52422 5.275298980052849 21.48265049550974 40.85828591944345 0 0 0
1273 425 1 -1.04844 4.931128479564538 20.95769411631374 41.58091996349817 0 0 0
1021 341 1 -1.04844 4.079292891726543 22.34572177057937 39.23443203725898 0 0 0
15 5 2 0.52422 1.0683648113666684 18.73306523930504 39.58794808952531 0 0 0
996 332 2 0.52422 2.7082266778440522 22.230104880116347 40.42687377694016 1 0 0
994 332 1 -1.04844 2.0074977141823624 22.165094076107774 41.07570692732101 1 0 0
995 332 2 0.52422 1.8017599482998101 21.231049182241552 41.11396994808267 1 0 0
630 210 2 0.52422 3.173011044485733 24.38170554602542 41.01701495667962 0 0 0
814 272 1 -1.04844 3.292436881858759 22.091926299890652 43.63280373195045 0 0 0
816 272 2 0.52422 2.6003499362958395 22.4570079163787 43.08147528715357 0 0 0
815 272 2 0.52422 3.90616361956488 21.693864899859836 43.015455758189084 0 0 0
738 246 2 0.52422 0.42000059778779913 22.963687070392467 41.318557941778835 1 0 0
1023 341 2 0.52422 4.987433724353557 22.61758913027383 39.10176592964141 0 0 0
14 5 2 0.52422 2.4281824882337335 19.062016414882756 39.00951726174432 0 0 0
120 40 2 0.52422 6.079039708380042 19.655049644109504 42.56394506910238 0 0 0
221 74 2 0.52422 9.813940370547853 24.635092634022893 39.37204507005724 0 0 0
1235 412 2 0.52422 11.768764758887198 22.602437731779823 38.892120644763516 0 -1 0
118 40 1 -1.04844 6.714506282202385 19.04943552489178 42.94558109489632 0 0 0
1236 412 2 0.52422 11.249148799617002 21.266338022237512 38.4055694474895 0 -1 0
1234 412 1 -1.04844 11.139481964075753 21.91268687844087 39.103020669120035 0 -1 0
1498 500 1 -1.04844 6.674769269805461 22.499220191518976 40.09922063913359 0 -1 0
88 30 1 -1.04844 8.058683975503882 24.55952549694442 41.735463595424974 0 0 0
1397 466 2 0.52422 6.357736044718105 21.901798689330345 42.64155571983227 0 0 0
1396 466 1 -1.04844 6.881979873870378 22.509445102440456 43.16325113040287 0 0 0
1398 466 2 0.52422 7.238439514144196 23.127662618298164 42.52530476581191 0 0 0
89 30 2 0.52422 8.589335967912119 24.417275563302862 40.95162350820818 0 0 0
220 74 1 -1.04844 9.220758674781973 23.884659575408257 39.33715132368483 0 0 0
1062 354 2 0.52422 7.44783813447716 19.289825458876866 41.18801792498864 0 0 0
222 74 2 0.52422 9.779218075351345 23.14876708522342 39.0865173926214 0 0 0
1061 354 2 0.52422 8.545882033907787 20.14014452514845 40.58539673197245 0 0 0
1060 354 1 -1.04844 7.6871011411480765 19.76428599789629 40.391856966066165 0 0 0
1430 477 2 0.52422 11.01542879518523 19.064889458416726 41.4432292656267 0 0 0
1500 500 2 0.52422 7.05029801654026 21.694986865192693 39.74086496781092 0 -1 0
1499 500 2 0.52422 7.363468260483833 23.154999507481623 39.99022962880665 0 -1 0
567 189 2 0.52422 10.488636100131162 21.210727135001346 40.516386310751415 0 0 0
565 189 1 -1.04844 10.047627312192198 20.657272646925616 41.160925977191 0 0 0
566 189 2 0.52422 10.100557196128557 21.152200653404364 41.978530176746794 0 0 0
102 34 2 0.52422 11.106626821484586 22.40633370535511 42.697897065774015 0 -1 0
100 34 1 -1.04844 10.34257044375373 22.157356284113504 43.21795494987083 0 -1 0
119 40 2 0.52422 7.257437429375611 19.59712471606258 43.51258574507287 0 0 0
1250 417 2 0.52422 7.073364224868027 18.47227239654706 39.00537074864027 0 0 0
1480 494 1 -1.04844 12.916082048556314 23.85800660236442 38.165037876291414 0 -1 0
1327 443 1 -1.04844 13.574542130320166 24.595657830281706 40.76856831654268 0 -1 0
1328 443 2 0.52422 14.333770622920728 24.502169075366844 41.343949754893266 0 -1 0
1482 494 2 0.52422 13.673188843755947 23.543784373426487 37.670785311528455 0 -1 0
1329 443 2 0.52422 12.874915659336573 24.118747341074766 41.21501103623059 0 -1 0
303 101 2 0.52422 13.799018793379387 22.698303309901053 42.62655851175239 0 -1 0
1518 506 2 0.52422 15.118047843078424 21.817371708223735 38.49260530912241 0 0 0
969 323 2 0.52422 15.614048666356576 19.74013424955737 42.02020954471165 0 0 0
302 101 2 0.52422 13.363379959960588 21.756525009715364 41.524212052293386 0 -1 0
301 101 1 -1.04844 13.021151411931697 22.30944084399308 42.22663329126884 0 -1 0
703 235 1 -1.04844 15.312869762842407 20.972713801901552 40.657997076253196 0 0 0
472 158 1 -1.04844 16.302293691825742 19.279160476709027 38.446741951991534 0 -1 0
704 235 2 0.52422 16.078407585441273 21.527908064988925 40.80612928609487 0 0 0
705 235 2 0.52422 15.574648857090052 20.387687595157605 39.947048282380074 0 0 0
473 158 2 0.52422 17.244545518244035 19.303300782776446 38.279976753980336 0 -1 0
967 323 1 -1.04844 15.765798863573831 19.165535608483122 42.77056970547687 0 0 0
763 255 1 -1.04844 17.72227681925785 22.31310702321948 40.620362896387384 0 0 0
765 255 2 0.52422 18.044612180087736 22.633033255444815 41.462965539300775 0 0 0
871 291 1 -1.04844 18.389161639125415 24.419264817221823 38.92180795428562 0 0 0
764 255 2 0.52422 17.842983179711293 23.050175496419286 40.02170433108144 0 0 0
682 228 1 -1.04844 18.21560855307254 23.3679135468459 43.18831285787681 0 -1 0
1481 494 2 0.52422 13.285845529537387 24.19904049980266 38.979410508125866 0 -1 0
684 228 2 0.52422 18.74315473377771 22.684354023862717 43.60143924890242 0 -1 0
683 228 2 0.52422 17.33311760590063 23.23115666546624 43.53289845859943 0 -1 0
30 10 2 0.52422 15.123723457973787 24.79100290961623 43.57405582577344 0 0 0
968 323 2 0.52422 14.927855032087688 18.723666344481753 42.907805767807254 0 0 0
28 10 1 -1.04844 15.099903543557902 23.84808147583004 43.73703972430864 0 0 0
1516 506 1 -1.04844 15.079723414367852 21.64538109932975 37.55176397182851 0 0 0
962 321 2 0.52422 16.876621202383962 24.27353521030909 37.58117064465127 0 0 0
700 234 1 -1.04844 20.95785263049158 24.4287771158246 40.33110883109071 0 -1 0
702 234 2 0.52422 20.99669898061929 0.06573011381142167 41.181870293443026 0 0 0
873 291 2 0.52422 19.149510811282756 24.56541550464966 39.484605427774376 0 0 0
1146 382 2 0.52422 20.078904398276652 24.408407412724557 42.977246962409275 0 0 0
489 163 2 0.52422 20.181527454120452 21.204297023934572 39.05111034964107 0 0 0
1410 470 2 0.52422 0.12259283395508902 20.060569401451207 40.792749896592056 1 0 0
1524 508 2 0.52422 24.105975315331964 20.720698449770726 43.14540982933905 0 0 0
737 246 2 0.52422 24.392104042390226 24.164654100465317 41.723725546193315 0 0 0
736 246 1 -1.04844 24.35443634103918 23.35775111411729 41.210188233198494 0 0 0
487 163 1 -1.04844 19.38582247535358 20.71634763038601 39.263221577074894 0 0 0
701 234 2 0.52422 21.331583301500217 23.561863639349593 40.489280693598964 0 -1 0
410 137 2 0.52422 19.25739485668343 18.81770443083049 39.85421706268941 0 0 0
488 163 2 0.52422 18.78387162613859 21.376530867606476 39.60679860339313 0 0 0
21 7 2 0.52422 22.987672441225453 22.51651289702697 40.57793047085445 0 -1 0
554 185 2 0.52422 21.603997663768588 19.771035730972336 41.958830173734334 0 0 0
20 7 2 0.52422 21.744891428484735 21.713761697987046 40.898837211506404 0 -1 0
19 7 1 -1.04844 22.211913755161348 22.12824787538365 40.17335584465285 0 -1 0
553 185 1 -1.04844 21.35493229474787 20.519491112687092 42.501059691808415 0 0 0
555 185 2 0.52422 22.13573634502612 20.709456646284693 43.02114630124067 0 0 0
1145 382 2 0.52422 21.327819035251707 0.2953573041198439 43.48735216717675 0 1 0
480 160 2 0.52422 19.91659196814671 20.610780191077442 43.437820679174855 0 0 0
513 171 2 0.52422 3.9035885162154194 6.137935701518933 43.63794211915695 0 0 0
1071 357 2 0.52422 3.020276230606521 5.095856478704431 49.35393196985345 0 0 0
99 33 2 0.52422 2.0606195031409427 4.711218941900848 44.98152032609525 0 0 0
97 33 1 -1.04844 2.035207022743435 4.273010540563785 45.832143312441396 0 0 0
98 33 2 0.52422 1.1090142221102204 4.077072272598465 45.973589184269755 0 0 0
1313 438 2 0.52422 3.4858321100327694 2.405986594698667 46.29409881714514 1 1 0
1514 505 2 0.52422 0.5742963268848043 0.6182968906740639 43.87334197863776 1 1 0
1332 444 2 0.52422 2.7188418771814433 5.42827794307035 47.154521159878435 0 1 0
1330 444 1 -1.04844 3.1631173506256136 5.862114494754396 47.88296954689668 0 1 0
805 269 1 -1.04844 0.679012740653967 2.532038448197997 48.14828829119257 1 1 0
783 261 2 0.52422 0.3248952837610683 1.273697409715089 46.7039479115854 1 1 0
806 269 2 0.52422 1.1907990678970455 2.1892643854780425 48.88096322057833 1 1 0
741 247 2 0.52422 5.73135799271283 2.6573600769342955 49.017056791657104 0 1 0
587 196 2 0.52422 4.668120002762634 0.3141865355566382 49.891064661489054 1 1 0